
     Program PWSCF v.6.1 (gpu tag v1.0) starts on 23Jan2018 at 18:30:46 

     This program is part of the open-source Quantum ESPRESSO suite
     for quantum simulation of materials; please cite
         "P. Giannozzi et al., J. Phys.:Condens. Matter 21 395502 (2009);
          URL http://www.quantum-espresso.org", 
     in publications or presentations arising from this work. More details at
     http://www.quantum-espresso.org/quote

     Parallel version (MPI & OpenMP), running on    1248 processor cores
     Number of MPI processes:               104
     Threads/MPI process:                    12

     GPU accelerated version

     K-points division:     npool     =      26
     R & G space division:  proc/nbgrp/npool/nimage =       4
     Reading input from ../pw.in

     Current dimensions of program PWSCF are:
     Max number of different atomic species (ntypx) = 10
     Max number of k-points (npk) =  40000
     Max angular momentum in pseudopotentials (lmaxx) =  3
               file Ta.pbe-mt_fhi.UPF: wavefunction(s)  5f renormalized
               file O.pbe-mt_fhi.UPF: wavefunction(s)  4f renormalized

     Subspace diagonalization in iterative solution of the eigenvalue problem:
     a serial algorithm will be used

     Found symmetry operation: I + (  0.0000  0.5000  0.0000)
     This is a supercell, fractional translations are disabled
 
     Parallelization info
     --------------------
     sticks:   dense  smooth     PW     G-vecs:    dense   smooth      PW
     Min        6349    6349   1636               911347   911347  119311
     Max        6350    6350   1638               911350   911350  119312
     Sum       25399   25399   6547              3645397  3645397  477247
 


     bravais-lattice index     =            8
     lattice parameter (alat)  =      26.9474  a.u.
     unit-cell volume          =   18204.1780 (a.u.)^3
     number of atoms/cell      =           96
     number of atomic types    =            2
     number of electrons       =       544.00
     number of Kohn-Sham states=          326
     kinetic-energy cutoff     =     130.0000  Ry
     charge density cutoff     =     520.0000  Ry
     convergence threshold     =      1.0E-08
     mixing beta               =       0.5000
     number of iterations used =            8  plain     mixing
     Exchange-correlation      = PBE ( 1  4  3  4 0 0)

     celldm(1)=  26.947400  celldm(2)=   0.845722  celldm(3)=   1.100000
     celldm(4)=   0.000000  celldm(5)=   0.000000  celldm(6)=   0.000000

     crystal axes: (cart. coord. in units of alat)
               a(1) = (   1.000000   0.000000   0.000000 )  
               a(2) = (   0.000000   0.845722   0.000000 )  
               a(3) = (   0.000000   0.000000   1.100000 )  

     reciprocal axes: (cart. coord. in units 2 pi/alat)
               b(1) = (  1.000000  0.000000  0.000000 )  
               b(2) = (  0.000000  1.182421  0.000000 )  
               b(3) = (  0.000000  0.000000  0.909091 )  


     PseudoPot. # 1 for Ta read from file:
     ../pseudo/Ta.pbe-mt_fhi.UPF
     MD5 check sum: f3732090d6e2b24522f7ba399f752202
     Pseudo is Norm-conserving, Zval =  5.0
     Generated using FHI98PP, converted with fhi2upf.x v.5.0.2
     Using radial grid of  563 points,  3 beta functions with: 
                l(1) =   0
                l(2) =   2
                l(3) =   3

     PseudoPot. # 2 for  O read from file:
     ../pseudo/O.pbe-mt_fhi.UPF
     MD5 check sum: 2ddb684ddb3c5d7407f47e9cdd68296a
     Pseudo is Norm-conserving, Zval =  6.0
     Generated using FHI98PP, converted with fhi2upf.x v.5.0.2
     Using radial grid of  473 points,  3 beta functions with: 
                l(1) =   0
                l(2) =   1
                l(3) =   3

     atomic species   valence    mass     pseudopotential
        Ta             5.00   180.95000     Ta( 1.00)
        O              6.00    15.99900      O( 1.00)

     No symmetry found



   Cartesian axes

     site n.     atom                  positions (alat units)
         1           Ta  tau(   1) = (   0.0000000   0.4228612   0.0000000  )
         2           Ta  tau(   2) = (   0.1250000   0.6156858   0.0000000  )
         3           Ta  tau(   3) = (   0.3750000   0.6507833   0.0000000  )
         4           Ta  tau(   4) = (   0.2500000   0.4228612   0.0000000  )
         5           Ta  tau(   5) = (   0.1250000   0.1928247   0.0000000  )
         6           Ta  tau(   6) = (   0.0000000   0.0000000   0.0000000  )
         7           Ta  tau(   7) = (   0.2500000   0.0000000   0.0000000  )
         8           Ta  tau(   8) = (   0.3750000   0.2279222   0.0000000  )
         9           Ta  tau(   9) = (   0.5000000   0.4228612   0.0000000  )
        10           Ta  tau(  10) = (   0.6250000   0.6156858   0.0000000  )
        11           Ta  tau(  11) = (   0.7500000   0.4228612   0.0000000  )
        12           Ta  tau(  12) = (   0.6250000   0.1928247   0.0000000  )
        13           Ta  tau(  13) = (   0.5000000   0.0000000   0.0000000  )
        14           Ta  tau(  14) = (   0.7500000   0.0000000   0.0000000  )
        15           Ta  tau(  15) = (   0.8750000   0.2279222   0.0000000  )
        16           Ta  tau(  16) = (   0.8750000   0.6507833   0.0000000  )
        17           Ta  tau(  17) = (   0.2500000   0.0000000   0.2678820  )
        18           Ta  tau(  18) = (   0.5000000   0.0000000   0.2678820  )
        19           Ta  tau(  19) = (   0.7500000   0.0000000   0.2678820  )
        20           Ta  tau(  20) = (   1.0000000   0.0000000   0.2678820  )
        21           Ta  tau(  21) = (   0.1250000   0.1928247   0.2678820  )
        22           Ta  tau(  22) = (   0.0000000   0.4228612   0.2678820  )
        23           Ta  tau(  23) = (   0.2500000   0.4228612   0.2678820  )
        24           Ta  tau(  24) = (   0.3750000   0.2279222   0.2678820  )
        25           Ta  tau(  25) = (   0.6250000   0.1928247   0.2678820  )
        26           Ta  tau(  26) = (   0.5000000   0.4228612   0.2678820  )
        27           Ta  tau(  27) = (   0.7500000   0.4228612   0.2678820  )
        28           Ta  tau(  28) = (   0.8750000   0.2279222   0.2678820  )
        29           Ta  tau(  29) = (   0.8750000   0.6507833   0.2678820  )
        30           Ta  tau(  30) = (   0.6250000   0.6156858   0.2678820  )
        31           Ta  tau(  31) = (   0.3750000   0.6507833   0.2678820  )
        32           Ta  tau(  32) = (   0.1250000   0.6156858   0.2678820  )
        33           O   tau(  33) = (   0.0000000   0.4190554   0.1339411  )
        34           O   tau(  34) = (   0.0295000   0.2871227   0.0000000  )
        35           O   tau(  35) = (   0.1255000   0.0494748   0.0000000  )
        36           O   tau(  36) = (   0.1250000   0.1814074   0.1339411  )
        37           O   tau(  37) = (   0.2220000   0.2871227   0.0000000  )
        38           O   tau(  38) = (   0.2820000   0.1302412   0.0000000  )
        39           O   tau(  39) = (   0.3750000   0.2351108   0.1339411  )
        40           O   tau(  40) = (   0.4695000   0.1302412   0.0000000  )
        41           O   tau(  41) = (   0.6255000   0.0494748   0.0000000  )
        42           O   tau(  42) = (   0.6250000   0.1814074   0.1339411  )
        43           O   tau(  43) = (   0.7820000   0.1302412   0.0000000  )
        44           O   tau(  44) = (   0.8750000   0.2351108   0.1339411  )
        45           O   tau(  45) = (   0.9695000   0.1302412   0.0000000  )
        46           O   tau(  46) = (   0.7220000   0.2871227   0.0000000  )
        47           O   tau(  47) = (   0.8755000   0.3687349   0.0000000  )
        48           O   tau(  48) = (   0.7500000   0.4190554   0.1339411  )
        49           O   tau(  49) = (   0.5295000   0.2871227   0.0000000  )
        50           O   tau(  50) = (   0.5000000   0.4190554   0.1339411  )
        51           O   tau(  51) = (   0.3755000   0.3687349   0.0000000  )
        52           O   tau(  52) = (   0.2500000   0.4190554   0.1339411  )
        53           O   tau(  53) = (   0.1255000   0.4723359   0.0000000  )
        54           O   tau(  54) = (   0.2820000   0.5531024   0.0000000  )
        55           O   tau(  55) = (   0.4695000   0.5531024   0.0000000  )
        56           O   tau(  56) = (   0.6255000   0.4723359   0.0000000  )
        57           O   tau(  57) = (   0.7820000   0.5531024   0.0000000  )
        58           O   tau(  58) = (   0.9695000   0.5531024   0.0000000  )
        59           O   tau(  59) = (   0.8750000   0.6579719   0.1339411  )
        60           O   tau(  60) = (   0.8755000   0.7915961   0.0000000  )
        61           O   tau(  61) = (   0.7220000   0.7099839   0.0000000  )
        62           O   tau(  62) = (   0.6250000   0.6042686   0.1339411  )
        63           O   tau(  63) = (   0.5295000   0.7099839   0.0000000  )
        64           O   tau(  64) = (   0.3750000   0.6579719   0.1339411  )
        65           O   tau(  65) = (   0.3755000   0.7915961   0.0000000  )
        66           O   tau(  66) = (   0.2220000   0.7099839   0.0000000  )
        67           O   tau(  67) = (   0.1250000   0.6042686   0.1339411  )
        68           O   tau(  68) = (   0.0295000   0.7099839   0.0000000  )
        69           O   tau(  69) = (   0.0000000   0.8419165   0.1339411  )
        70           O   tau(  70) = (   0.2500000   0.8419165   0.1339411  )
        71           O   tau(  71) = (   0.5000000   0.8419165   0.1339411  )
        72           O   tau(  72) = (   0.7500000   0.8419165   0.1339411  )
        73           O   tau(  73) = (   0.1255000   0.0494748   0.2678820  )
        74           O   tau(  74) = (   0.2820000   0.1302412   0.2678820  )
        75           O   tau(  75) = (   0.4695000   0.1302412   0.2678820  )
        76           O   tau(  76) = (   0.6255000   0.0494748   0.2678820  )
        77           O   tau(  77) = (   0.7820000   0.1302412   0.2678820  )
        78           O   tau(  78) = (   0.9695000   0.1302412   0.2678820  )
        79           O   tau(  79) = (   0.7220000   0.2871227   0.2678820  )
        80           O   tau(  80) = (   0.5295000   0.2871227   0.2678820  )
        81           O   tau(  81) = (   0.3755000   0.3687349   0.2678820  )
        82           O   tau(  82) = (   0.2220000   0.2871227   0.2678820  )
        83           O   tau(  83) = (   0.0295000   0.2871227   0.2678820  )
        84           O   tau(  84) = (   0.1255000   0.4723359   0.2678820  )
        85           O   tau(  85) = (   0.2820000   0.5531024   0.2678820  )
        86           O   tau(  86) = (   0.4695000   0.5531024   0.2678820  )
        87           O   tau(  87) = (   0.6255000   0.4723359   0.2678820  )
        88           O   tau(  88) = (   0.7820000   0.5531024   0.2678820  )
        89           O   tau(  89) = (   0.8755000   0.3687349   0.2678820  )
        90           O   tau(  90) = (   0.9695000   0.5531024   0.2678820  )
        91           O   tau(  91) = (   0.8755000   0.7915961   0.2678820  )
        92           O   tau(  92) = (   0.7220000   0.7099839   0.2678820  )
        93           O   tau(  93) = (   0.5295000   0.7099839   0.2678820  )
        94           O   tau(  94) = (   0.3755000   0.7915961   0.2678820  )
        95           O   tau(  95) = (   0.2220000   0.7099839   0.2678820  )
        96           O   tau(  96) = (   0.0295000   0.7099839   0.2678820  )

     number of k points=    26  Marzari-Vanderbilt smearing, width (Ry)=  0.0500
                       cart. coord. in units 2pi/alat
        k(    1) = (   0.0000000   0.0000000   0.0000000), wk =   0.0400000
        k(    2) = (   0.0000000   0.0000000  -0.4545455), wk =   0.0400000
        k(    3) = (   0.0000000   0.2364842   0.0000000), wk =   0.0800000
        k(    4) = (   0.0000000   0.2364842  -0.4545455), wk =   0.0800000
        k(    5) = (   0.0000000   0.4729685   0.0000000), wk =   0.0800000
        k(    6) = (   0.0000000   0.4729685  -0.4545455), wk =   0.0800000
        k(    7) = (   0.2000000   0.0000000   0.0000000), wk =   0.0800000
        k(    8) = (   0.2000000   0.0000000  -0.4545455), wk =   0.0800000
        k(    9) = (   0.2000000   0.2364842   0.0000000), wk =   0.0800000
        k(   10) = (   0.2000000   0.2364842  -0.4545455), wk =   0.0800000
        k(   11) = (   0.2000000   0.4729685   0.0000000), wk =   0.0800000
        k(   12) = (   0.2000000   0.4729685  -0.4545455), wk =   0.0800000
        k(   13) = (   0.2000000  -0.4729685   0.0000000), wk =   0.0800000
        k(   14) = (   0.2000000  -0.4729685  -0.4545455), wk =   0.0800000
        k(   15) = (   0.2000000  -0.2364842   0.0000000), wk =   0.0800000
        k(   16) = (   0.2000000  -0.2364842  -0.4545455), wk =   0.0800000
        k(   17) = (   0.4000000   0.0000000   0.0000000), wk =   0.0800000
        k(   18) = (   0.4000000   0.0000000  -0.4545455), wk =   0.0800000
        k(   19) = (   0.4000000   0.2364842   0.0000000), wk =   0.0800000
        k(   20) = (   0.4000000   0.2364842  -0.4545455), wk =   0.0800000
        k(   21) = (   0.4000000   0.4729685   0.0000000), wk =   0.0800000
        k(   22) = (   0.4000000   0.4729685  -0.4545455), wk =   0.0800000
        k(   23) = (   0.4000000  -0.4729685   0.0000000), wk =   0.0800000
        k(   24) = (   0.4000000  -0.4729685  -0.4545455), wk =   0.0800000
        k(   25) = (   0.4000000  -0.2364842   0.0000000), wk =   0.0800000
        k(   26) = (   0.4000000  -0.2364842  -0.4545455), wk =   0.0800000

     Dense  grid:  3645397 G-vectors     FFT dimensions: ( 200, 180, 216)

     Estimated max dynamical RAM per process >    5349.87MB

     Estimated total allocated dynamical RAM >  556386.21MB

     Initial potential from superposition of free atoms
     Check: negative starting charge=   -0.031478

     starting charge  543.96886, renormalised to  544.00000

     negative rho (up, down):  3.148E-02 0.000E+00
     Starting wfc are 1536 randomized atomic wfcs

     total cpu time spent up to now is       19.5 secs

     per-process dynamical memory:  1721.7 Mb

     Self-consistent Calculation

     iteration #  1     ecut=   130.00 Ry     beta=0.50
     Davidson diagonalization with overlap
     ethr =  1.00E-02,  avg # of iterations =  2.0

     negative rho (up, down):  1.292E-02 0.000E+00

     total cpu time spent up to now is       25.8 secs

     total energy              =   -2355.78926693 Ry
     Harris-Foulkes estimate   =   -2379.71636068 Ry
     estimated scf accuracy    <      37.68755295 Ry

     iteration #  2     ecut=   130.00 Ry     beta=0.50
     Davidson diagonalization with overlap
     ethr =  6.93E-03,  avg # of iterations =  6.1

     total cpu time spent up to now is       34.4 secs

     total energy              =   -2340.64498360 Ry
     Harris-Foulkes estimate   =   -2382.15161474 Ry
     estimated scf accuracy    <     156.79165708 Ry

     iteration #  3     ecut=   130.00 Ry     beta=0.50
     Davidson diagonalization with overlap
     ethr =  6.93E-03,  avg # of iterations =  4.2

     total cpu time spent up to now is       41.4 secs

     total energy              =   -2370.03854418 Ry
     Harris-Foulkes estimate   =   -2373.77928480 Ry
     estimated scf accuracy    <      16.07887761 Ry

     iteration #  4     ecut=   130.00 Ry     beta=0.50
     Davidson diagonalization with overlap
     ethr =  2.96E-03,  avg # of iterations =  2.0

     total cpu time spent up to now is       46.0 secs

     total energy              =   -2370.39129742 Ry
     Harris-Foulkes estimate   =   -2371.02653828 Ry
     estimated scf accuracy    <       3.92321814 Ry

     iteration #  5     ecut=   130.00 Ry     beta=0.50
     Davidson diagonalization with overlap
     ethr =  7.21E-04,  avg # of iterations =  6.0

     total cpu time spent up to now is       52.0 secs

     total energy              =   -2370.47292292 Ry
     Harris-Foulkes estimate   =   -2370.83974628 Ry
     estimated scf accuracy    <       2.11810072 Ry

     iteration #  6     ecut=   130.00 Ry     beta=0.50
     Davidson diagonalization with overlap
     ethr =  3.89E-04,  avg # of iterations =  6.3

     total cpu time spent up to now is       57.6 secs

     total energy              =   -2370.50187648 Ry
     Harris-Foulkes estimate   =   -2370.77378688 Ry
     estimated scf accuracy    <       3.14484117 Ry

     iteration #  7     ecut=   130.00 Ry     beta=0.50
     Davidson diagonalization with overlap
     ethr =  3.89E-04,  avg # of iterations =  4.8

     total cpu time spent up to now is       63.0 secs

     total energy              =   -2370.60754182 Ry
     Harris-Foulkes estimate   =   -2370.66034279 Ry
     estimated scf accuracy    <       0.33627543 Ry

     iteration #  8     ecut=   130.00 Ry     beta=0.50
     Davidson diagonalization with overlap
     ethr =  6.18E-05,  avg # of iterations = 13.0

     total cpu time spent up to now is       71.1 secs

     total energy              =   -2370.60304959 Ry
     Harris-Foulkes estimate   =   -2370.65206005 Ry
     estimated scf accuracy    <       0.33925657 Ry

     iteration #  9     ecut=   130.00 Ry     beta=0.50
     Davidson diagonalization with overlap
     ethr =  6.18E-05,  avg # of iterations =  9.7

     total cpu time spent up to now is       78.2 secs

     total energy              =   -2370.60378404 Ry
     Harris-Foulkes estimate   =   -2370.65826096 Ry
     estimated scf accuracy    <       0.56487426 Ry

     iteration # 10     ecut=   130.00 Ry     beta=0.50
     Davidson diagonalization with overlap
     ethr =  6.18E-05,  avg # of iterations =  5.8

     total cpu time spent up to now is       84.1 secs

     total energy              =   -2370.61828568 Ry
     Harris-Foulkes estimate   =   -2370.64903220 Ry
     estimated scf accuracy    <       0.21496386 Ry

     iteration # 11     ecut=   130.00 Ry     beta=0.50
     Davidson diagonalization with overlap
     ethr =  3.95E-05,  avg # of iterations =  5.2

     total cpu time spent up to now is       90.8 secs

     total energy              =   -2370.62681404 Ry
     Harris-Foulkes estimate   =   -2370.64315103 Ry
     estimated scf accuracy    <       0.10347419 Ry

     iteration # 12     ecut=   130.00 Ry     beta=0.50
     Davidson diagonalization with overlap
     ethr =  1.90E-05,  avg # of iterations =  6.2

     total cpu time spent up to now is       98.3 secs

     total energy              =   -2370.63152621 Ry
     Harris-Foulkes estimate   =   -2370.63643202 Ry
     estimated scf accuracy    <       0.03604258 Ry

     iteration # 13     ecut=   130.00 Ry     beta=0.50
     Davidson diagonalization with overlap
     ethr =  6.63E-06,  avg # of iterations = 12.8

     total cpu time spent up to now is      106.1 secs

     total energy              =   -2370.63263103 Ry
     Harris-Foulkes estimate   =   -2370.63549900 Ry
     estimated scf accuracy    <       0.01329538 Ry

     iteration # 14     ecut=   130.00 Ry     beta=0.50
     Davidson diagonalization with overlap
     ethr =  2.44E-06,  avg # of iterations =  8.9

     total cpu time spent up to now is      113.5 secs

     total energy              =   -2370.62850989 Ry
     Harris-Foulkes estimate   =   -2370.64133608 Ry
     estimated scf accuracy    <       0.13494058 Ry

     iteration # 15     ecut=   130.00 Ry     beta=0.50
     Davidson diagonalization with overlap
     ethr =  2.44E-06,  avg # of iterations =  9.9

     total cpu time spent up to now is      120.6 secs

     total energy              =   -2370.63417354 Ry
     Harris-Foulkes estimate   =   -2370.63578259 Ry
     estimated scf accuracy    <       0.00896694 Ry

     iteration # 16     ecut=   130.00 Ry     beta=0.50
     Davidson diagonalization with overlap
     ethr =  1.65E-06,  avg # of iterations = 10.9

     total cpu time spent up to now is      128.0 secs

     total energy              =   -2370.63369876 Ry
     Harris-Foulkes estimate   =   -2370.63633330 Ry
     estimated scf accuracy    <       0.02732146 Ry

     iteration # 17     ecut=   130.00 Ry     beta=0.50
     Davidson diagonalization with overlap
     ethr =  1.65E-06,  avg # of iterations =  9.9

     total cpu time spent up to now is      136.0 secs

     total energy              =   -2370.63474231 Ry
     Harris-Foulkes estimate   =   -2370.63577415 Ry
     estimated scf accuracy    <       0.00946918 Ry

     iteration # 18     ecut=   130.00 Ry     beta=0.50
     Davidson diagonalization with overlap
     ethr =  1.65E-06,  avg # of iterations =  4.3

     total cpu time spent up to now is      140.9 secs

     total energy              =   -2370.63514653 Ry
     Harris-Foulkes estimate   =   -2370.63537928 Ry
     estimated scf accuracy    <       0.00156369 Ry

     iteration # 19     ecut=   130.00 Ry     beta=0.50
     Davidson diagonalization with overlap
     ethr =  2.87E-07,  avg # of iterations =  5.2

     total cpu time spent up to now is      146.3 secs

     total energy              =   -2370.63522758 Ry
     Harris-Foulkes estimate   =   -2370.63540847 Ry
     estimated scf accuracy    <       0.00155668 Ry

     iteration # 20     ecut=   130.00 Ry     beta=0.50
     Davidson diagonalization with overlap
     ethr =  2.86E-07,  avg # of iterations =  5.1

     total cpu time spent up to now is      151.6 secs

     total energy              =   -2370.63528342 Ry
     Harris-Foulkes estimate   =   -2370.63544345 Ry
     estimated scf accuracy    <       0.00200300 Ry

     iteration # 21     ecut=   130.00 Ry     beta=0.50
     Davidson diagonalization with overlap
     ethr =  2.86E-07,  avg # of iterations =  4.7

     total cpu time spent up to now is      156.7 secs

     total energy              =   -2370.63536967 Ry
     Harris-Foulkes estimate   =   -2370.63543380 Ry
     estimated scf accuracy    <       0.00039841 Ry

     iteration # 22     ecut=   130.00 Ry     beta=0.50
     Davidson diagonalization with overlap
     ethr =  7.32E-08,  avg # of iterations =  4.8

     total cpu time spent up to now is      162.0 secs

     total energy              =   -2370.63537619 Ry
     Harris-Foulkes estimate   =   -2370.63541329 Ry
     estimated scf accuracy    <       0.00011036 Ry

     iteration # 23     ecut=   130.00 Ry     beta=0.50
     Davidson diagonalization with overlap
     ethr =  2.03E-08,  avg # of iterations =  6.8

     total cpu time spent up to now is      167.9 secs

     total energy              =   -2370.63537072 Ry
     Harris-Foulkes estimate   =   -2370.63543803 Ry
     estimated scf accuracy    <       0.00077338 Ry

     iteration # 24     ecut=   130.00 Ry     beta=0.50
     Davidson diagonalization with overlap
     ethr =  2.03E-08,  avg # of iterations =  6.9

     total cpu time spent up to now is      173.7 secs

     total energy              =   -2370.63539598 Ry
     Harris-Foulkes estimate   =   -2370.63542822 Ry
     estimated scf accuracy    <       0.00027735 Ry

     iteration # 25     ecut=   130.00 Ry     beta=0.50
     Davidson diagonalization with overlap
     ethr =  2.03E-08,  avg # of iterations =  5.3

     total cpu time spent up to now is      179.4 secs

     total energy              =   -2370.63541136 Ry
     Harris-Foulkes estimate   =   -2370.63541889 Ry
     estimated scf accuracy    <       0.00005999 Ry

     iteration # 26     ecut=   130.00 Ry     beta=0.50
     Davidson diagonalization with overlap
     ethr =  1.10E-08,  avg # of iterations =  5.4

     total cpu time spent up to now is      184.6 secs

     total energy              =   -2370.63541420 Ry
     Harris-Foulkes estimate   =   -2370.63541956 Ry
     estimated scf accuracy    <       0.00005320 Ry

     iteration # 27     ecut=   130.00 Ry     beta=0.50
     Davidson diagonalization with overlap
     ethr =  9.78E-09,  avg # of iterations =  3.7

     total cpu time spent up to now is      189.3 secs

     total energy              =   -2370.63541628 Ry
     Harris-Foulkes estimate   =   -2370.63541763 Ry
     estimated scf accuracy    <       0.00000470 Ry

     iteration # 28     ecut=   130.00 Ry     beta=0.50
     Davidson diagonalization with overlap
     ethr =  8.64E-10,  avg # of iterations =  6.0

     total cpu time spent up to now is      195.5 secs

     total energy              =   -2370.63541637 Ry
     Harris-Foulkes estimate   =   -2370.63541826 Ry
     estimated scf accuracy    <       0.00001295 Ry

     iteration # 29     ecut=   130.00 Ry     beta=0.50
     Davidson diagonalization with overlap
     ethr =  8.64E-10,  avg # of iterations =  6.2

     total cpu time spent up to now is      201.1 secs

     total energy              =   -2370.63541683 Ry
     Harris-Foulkes estimate   =   -2370.63541842 Ry
     estimated scf accuracy    <       0.00001430 Ry

     iteration # 30     ecut=   130.00 Ry     beta=0.50
     Davidson diagonalization with overlap
     ethr =  8.64E-10,  avg # of iterations =  5.9

     total cpu time spent up to now is      206.9 secs

     total energy              =   -2370.63541726 Ry
     Harris-Foulkes estimate   =   -2370.63541843 Ry
     estimated scf accuracy    <       0.00001286 Ry

     iteration # 31     ecut=   130.00 Ry     beta=0.50
     Davidson diagonalization with overlap
     ethr =  8.64E-10,  avg # of iterations =  5.3

     total cpu time spent up to now is      212.2 secs

     total energy              =   -2370.63541769 Ry
     Harris-Foulkes estimate   =   -2370.63541805 Ry
     estimated scf accuracy    <       0.00000223 Ry

     iteration # 32     ecut=   130.00 Ry     beta=0.50
     Davidson diagonalization with overlap
     ethr =  4.11E-10,  avg # of iterations =  4.9

     total cpu time spent up to now is      217.8 secs

     total energy              =   -2370.63541780 Ry
     Harris-Foulkes estimate   =   -2370.63541802 Ry
     estimated scf accuracy    <       0.00000164 Ry

     iteration # 33     ecut=   130.00 Ry     beta=0.50
     Davidson diagonalization with overlap
     ethr =  3.02E-10,  avg # of iterations =  5.1

     total cpu time spent up to now is      223.3 secs

     total energy              =   -2370.63541780 Ry
     Harris-Foulkes estimate   =   -2370.63541810 Ry
     estimated scf accuracy    <       0.00000337 Ry

     iteration # 34     ecut=   130.00 Ry     beta=0.50
     Davidson diagonalization with overlap
     ethr =  3.02E-10,  avg # of iterations =  5.0

     total cpu time spent up to now is      228.6 secs

     total energy              =   -2370.63541794 Ry
     Harris-Foulkes estimate   =   -2370.63541802 Ry
     estimated scf accuracy    <       0.00000081 Ry

     iteration # 35     ecut=   130.00 Ry     beta=0.50
     Davidson diagonalization with overlap
     ethr =  1.49E-10,  avg # of iterations =  5.0

     total cpu time spent up to now is      233.8 secs

     total energy              =   -2370.63541797 Ry
     Harris-Foulkes estimate   =   -2370.63541806 Ry
     estimated scf accuracy    <       0.00000093 Ry

     iteration # 36     ecut=   130.00 Ry     beta=0.50
     Davidson diagonalization with overlap
     ethr =  1.49E-10,  avg # of iterations =  5.0

     total cpu time spent up to now is      238.8 secs

     total energy              =   -2370.63541799 Ry
     Harris-Foulkes estimate   =   -2370.63541805 Ry
     estimated scf accuracy    <       0.00000040 Ry

     iteration # 37     ecut=   130.00 Ry     beta=0.50
     Davidson diagonalization with overlap
     ethr =  7.38E-11,  avg # of iterations =  5.0

     total cpu time spent up to now is      244.1 secs

     total energy              =   -2370.63541800 Ry
     Harris-Foulkes estimate   =   -2370.63541805 Ry
     estimated scf accuracy    <       0.00000035 Ry

     iteration # 38     ecut=   130.00 Ry     beta=0.50
     Davidson diagonalization with overlap
     ethr =  6.47E-11,  avg # of iterations =  4.8

     total cpu time spent up to now is      249.1 secs

     total energy              =   -2370.63541802 Ry
     Harris-Foulkes estimate   =   -2370.63541804 Ry
     estimated scf accuracy    <       0.00000022 Ry

     iteration # 39     ecut=   130.00 Ry     beta=0.50
     Davidson diagonalization with overlap
     ethr =  4.03E-11,  avg # of iterations =  4.8

     total cpu time spent up to now is      254.3 secs

     total energy              =   -2370.63541803 Ry
     Harris-Foulkes estimate   =   -2370.63541805 Ry
     estimated scf accuracy    <       0.00000015 Ry

     iteration # 40     ecut=   130.00 Ry     beta=0.50
     Davidson diagonalization with overlap
     ethr =  2.80E-11,  avg # of iterations =  5.0

     total cpu time spent up to now is      259.3 secs

     total energy              =   -2370.63541803 Ry
     Harris-Foulkes estimate   =   -2370.63541806 Ry
     estimated scf accuracy    <       0.00000019 Ry

     iteration # 41     ecut=   130.00 Ry     beta=0.50
     Davidson diagonalization with overlap
     ethr =  2.80E-11,  avg # of iterations =  5.0

     total cpu time spent up to now is      264.3 secs

     total energy              =   -2370.63541804 Ry
     Harris-Foulkes estimate   =   -2370.63541805 Ry
     estimated scf accuracy    <       0.00000015 Ry

     iteration # 42     ecut=   130.00 Ry     beta=0.50
     Davidson diagonalization with overlap
     ethr =  2.72E-11,  avg # of iterations =  4.3

     total cpu time spent up to now is      269.2 secs

     total energy              =   -2370.63541804 Ry
     Harris-Foulkes estimate   =   -2370.63541805 Ry
     estimated scf accuracy    <       0.00000008 Ry

     iteration # 43     ecut=   130.00 Ry     beta=0.50
     Davidson diagonalization with overlap
     ethr =  1.42E-11,  avg # of iterations =  5.1

     total cpu time spent up to now is      274.6 secs

     total energy              =   -2370.63541804 Ry
     Harris-Foulkes estimate   =   -2370.63541806 Ry
     estimated scf accuracy    <       0.00000015 Ry

     iteration # 44     ecut=   130.00 Ry     beta=0.50
     Davidson diagonalization with overlap
     ethr =  1.42E-11,  avg # of iterations =  5.1

     total cpu time spent up to now is      279.9 secs

     total energy              =   -2370.63541805 Ry
     Harris-Foulkes estimate   =   -2370.63541805 Ry
     estimated scf accuracy    <       0.00000005 Ry

     iteration # 45     ecut=   130.00 Ry     beta=0.50
     Davidson diagonalization with overlap
     ethr =  9.73E-12,  avg # of iterations =  4.6

     total cpu time spent up to now is      285.3 secs

     total energy              =   -2370.63541805 Ry
     Harris-Foulkes estimate   =   -2370.63541805 Ry
     estimated scf accuracy    <       0.00000002 Ry

     iteration # 46     ecut=   130.00 Ry     beta=0.50
     Davidson diagonalization with overlap
     ethr =  4.26E-12,  avg # of iterations =  5.0

     total cpu time spent up to now is      290.7 secs

     total energy              =   -2370.63541805 Ry
     Harris-Foulkes estimate   =   -2370.63541806 Ry
     estimated scf accuracy    <       0.00000002 Ry

     iteration # 47     ecut=   130.00 Ry     beta=0.50
     Davidson diagonalization with overlap
     ethr =  3.67E-12,  avg # of iterations =  5.0

     total cpu time spent up to now is      296.0 secs

     total energy              =   -2370.63541805 Ry
     Harris-Foulkes estimate   =   -2370.63541806 Ry
     estimated scf accuracy    <       0.00000002 Ry

     iteration # 48     ecut=   130.00 Ry     beta=0.50
     Davidson diagonalization with overlap
     ethr =  3.67E-12,  avg # of iterations =  4.8

     total cpu time spent up to now is      301.1 secs

     total energy              =   -2370.63541805 Ry
     Harris-Foulkes estimate   =   -2370.63541806 Ry
     estimated scf accuracy    <       0.00000002 Ry

     iteration # 49     ecut=   130.00 Ry     beta=0.50
     Davidson diagonalization with overlap
     ethr =  3.67E-12,  avg # of iterations =  4.5

     total cpu time spent up to now is      307.0 secs

     End of self-consistent calculation

          k = 0.0000 0.0000 0.0000 (455621 PWs)   bands (ev):

   -19.4593 -19.3991 -19.2463 -19.2008 -19.0561 -19.0033 -18.9940 -18.9594
   -18.9366 -18.9166 -18.8530 -18.8072 -18.6633 -18.6106 -18.4227 -18.3914
   -18.2428 -18.2133 -18.1097 -18.0974 -18.0834 -18.0748 -18.0614 -18.0254
   -18.0233 -17.9766 -17.9208 -17.8913 -17.8812 -17.8330 -17.8012 -17.7658
   -17.7076 -17.6835 -17.6781 -17.6434 -17.6196 -17.5952 -17.5850 -17.5576
   -17.3020 -17.2875 -17.2796 -17.2692 -17.2643 -17.2623 -17.2491 -17.2454
   -16.9380 -16.9155 -16.9040 -16.8931 -16.8919 -16.8887 -16.8758 -16.8597
   -16.8062 -16.8057 -16.8050 -16.8033 -16.7935 -16.7922 -16.7882 -16.7858
    -7.4132  -7.3953  -7.1447  -7.1247  -7.0076  -6.9898  -6.4379  -6.4294
    -6.4212  -6.4110  -6.4066  -6.3952  -6.3312  -6.3047  -6.2823  -6.2506
    -6.0917  -6.0376  -6.0178  -6.0027  -5.9981  -5.9647  -5.9644  -5.9635
    -5.9581  -5.9244  -5.8624  -5.8406  -5.7136  -5.7031  -5.6782  -5.6670
    -5.6447  -5.6195  -5.5849  -5.5827  -5.5463  -5.5164  -5.5133  -5.4287
    -5.0583  -5.0484  -5.0450  -5.0317  -5.0138  -4.9793  -4.9699  -4.9519
    -4.9469  -4.9203  -4.8811  -4.7955  -4.7458  -4.6933  -4.6776  -4.6700
    -4.6666  -4.6580  -4.6579  -4.6538  -4.6450  -4.6358  -4.4977  -4.4469
    -4.4363  -4.4203  -4.4147  -4.4002  -4.3928  -4.3908  -4.3867  -4.3844
    -4.3837  -4.3671  -4.3482  -4.3221  -4.2959  -4.2560  -4.2452  -4.2334
    -4.2228  -4.2208  -4.1877  -4.1624  -4.1573  -4.1477  -4.1321  -4.1144
    -4.0942  -4.0855  -4.0771  -4.0616  -4.0507  -4.0223  -3.9232  -3.8749
    -3.8416  -3.8379  -3.8267  -3.7881  -3.7329  -3.7256  -3.7161  -3.7091
    -3.6972  -3.6630  -3.6423  -3.6323  -3.6195  -3.6164  -3.5758  -3.5747
    -3.5522  -3.5411  -3.5364  -3.5285  -3.5209  -3.5080  -3.4897  -3.4582
    -3.4399  -3.4351  -3.4175  -3.3383  -3.3132  -3.3086  -3.2868  -3.1994
    -3.1979  -3.1746  -2.9990  -2.9280  -2.9123  -2.9051  -2.8948  -2.8604
    -2.7850  -2.7814  -2.6603  -2.6239  -2.5644  -2.5473  -2.4376  -2.3431
    -2.3346  -2.3132  -2.3078  -2.3052  -2.2865  -2.2335  -2.2147  -2.1906
    -2.1736  -2.1654  -2.1572  -2.1424  -2.1089  -2.0905  -2.0770  -2.0353
    -2.0156  -2.0058  -1.8817  -1.8737  -1.7632  -1.7380  -1.7034  -1.6001
    -1.5480  -1.5369  -1.5302  -1.5237  -1.4802  -1.4672  -1.3831  -1.3605
    -1.3549  -1.3308  -1.2897  -1.2595  -1.2581  -1.2390  -1.2258  -1.2081
    -1.1724  -1.1307  -1.1059  -1.0431  -1.0038  -0.9125  -0.8829  -0.7813
     1.9463   2.0701   2.1109   2.2199   2.2482   2.3150   2.3231   2.3592
     2.4833   2.5505   2.5582   2.5610   2.5871   2.6293   2.7584   2.8004
     2.8859   2.8955   2.9158   2.9484   3.0034   3.0193   3.0353   3.1471
     3.2002   3.2806   3.2990   3.3076   3.3560   3.3765   3.3891   3.4420
     3.4636   3.5225   3.5433   3.5496   3.5546   3.5577   3.5659   3.5780
     3.6444   3.6457   3.6558   3.6940   3.7284   3.7419   3.7709   3.8051
     3.8113   3.8263   3.8702   3.8940   3.8982   3.9015   3.9357   3.9533
     3.9659   3.9862   4.0114   4.0284   4.0406   4.0446   4.0650   4.0776
     4.0849   4.1112   4.1881   4.2067   4.2294   4.2407

          k = 0.0000 0.0000-0.4545 (455664 PWs)   bands (ev):

   -19.4593 -19.3991 -19.2463 -19.2008 -19.0561 -19.0033 -18.9940 -18.9594
   -18.9366 -18.9166 -18.8530 -18.8072 -18.6633 -18.6106 -18.4227 -18.3914
   -18.2428 -18.2133 -18.1097 -18.0974 -18.0834 -18.0748 -18.0614 -18.0254
   -18.0233 -17.9766 -17.9208 -17.8913 -17.8812 -17.8330 -17.8012 -17.7658
   -17.7076 -17.6835 -17.6781 -17.6434 -17.6196 -17.5952 -17.5850 -17.5576
   -17.3020 -17.2875 -17.2796 -17.2692 -17.2643 -17.2623 -17.2491 -17.2454
   -16.9380 -16.9155 -16.9040 -16.8931 -16.8919 -16.8887 -16.8758 -16.8597
   -16.8062 -16.8057 -16.8050 -16.8033 -16.7935 -16.7922 -16.7882 -16.7858
    -7.4132  -7.3953  -7.1447  -7.1247  -7.0076  -6.9898  -6.4379  -6.4294
    -6.4212  -6.4110  -6.4066  -6.3952  -6.3312  -6.3047  -6.2823  -6.2506
    -6.0917  -6.0376  -6.0178  -6.0027  -5.9981  -5.9647  -5.9644  -5.9635
    -5.9581  -5.9244  -5.8624  -5.8406  -5.7136  -5.7031  -5.6782  -5.6670
    -5.6447  -5.6195  -5.5849  -5.5827  -5.5463  -5.5164  -5.5133  -5.4287
    -5.0583  -5.0484  -5.0450  -5.0317  -5.0138  -4.9793  -4.9699  -4.9519
    -4.9469  -4.9203  -4.8811  -4.7955  -4.7458  -4.6933  -4.6776  -4.6700
    -4.6666  -4.6580  -4.6579  -4.6538  -4.6450  -4.6358  -4.4977  -4.4469
    -4.4363  -4.4203  -4.4147  -4.4002  -4.3928  -4.3909  -4.3867  -4.3844
    -4.3837  -4.3671  -4.3482  -4.3221  -4.2959  -4.2560  -4.2452  -4.2334
    -4.2229  -4.2208  -4.1877  -4.1624  -4.1573  -4.1477  -4.1321  -4.1144
    -4.0942  -4.0855  -4.0771  -4.0616  -4.0507  -4.0223  -3.9232  -3.8749
    -3.8416  -3.8379  -3.8267  -3.7881  -3.7329  -3.7256  -3.7161  -3.7091
    -3.6972  -3.6630  -3.6423  -3.6323  -3.6195  -3.6164  -3.5758  -3.5747
    -3.5522  -3.5411  -3.5364  -3.5285  -3.5209  -3.5080  -3.4897  -3.4582
    -3.4399  -3.4351  -3.4175  -3.3383  -3.3132  -3.3086  -3.2868  -3.1994
    -3.1979  -3.1746  -2.9990  -2.9280  -2.9123  -2.9051  -2.8948  -2.8604
    -2.7850  -2.7814  -2.6603  -2.6239  -2.5644  -2.5473  -2.4376  -2.3431
    -2.3346  -2.3132  -2.3078  -2.3052  -2.2865  -2.2335  -2.2147  -2.1906
    -2.1736  -2.1654  -2.1572  -2.1424  -2.1089  -2.0905  -2.0770  -2.0353
    -2.0156  -2.0058  -1.8817  -1.8737  -1.7632  -1.7380  -1.7034  -1.6001
    -1.5480  -1.5369  -1.5302  -1.5237  -1.4803  -1.4672  -1.3831  -1.3605
    -1.3549  -1.3308  -1.2897  -1.2595  -1.2581  -1.2390  -1.2258  -1.2081
    -1.1724  -1.1307  -1.1059  -1.0432  -1.0038  -0.9124  -0.8829  -0.7813
     1.9463   2.0776   2.1107   2.2198   2.2481   2.3147   2.3231   2.3592
     2.4833   2.5557   2.5582   2.5663   2.5909   2.6201   2.7582   2.8051
     2.8883   2.8978   2.9154   2.9484   3.0002   3.0160   3.0349   3.1495
     3.2028   3.2809   3.2934   3.3079   3.3396   3.3710   3.3900   3.4429
     3.4613   3.5228   3.5354   3.5444   3.5503   3.5580   3.5659   3.5769
     3.6363   3.6445   3.6557   3.6945   3.7288   3.7420   3.7665   3.8052
     3.8106   3.8233   3.8704   3.8941   3.8983   3.9018   3.9316   3.9469
     3.9665   3.9784   4.0122   4.0272   4.0406   4.0446   4.0651   4.0714
     4.0850   4.1102   4.1896   4.2057   4.2294   4.2409

          k = 0.0000 0.2365 0.0000 (455713 PWs)   bands (ev):

   -19.4421 -19.3827 -19.2709 -19.2231 -19.0472 -18.9952 -18.9818 -18.9690
   -18.9252 -18.9250 -18.8679 -18.8206 -18.6452 -18.5951 -18.4625 -18.4285
   -18.1991 -18.1714 -18.0993 -18.0932 -18.0721 -18.0691 -18.0463 -18.0354
   -18.0105 -17.9930 -17.9586 -17.9360 -17.9308 -17.8945 -17.8526 -17.8178
   -17.6341 -17.6288 -17.6007 -17.5878 -17.5632 -17.5488 -17.5389 -17.5202
   -17.3230 -17.3098 -17.3072 -17.3034 -17.2920 -17.2895 -17.2760 -17.2738
   -16.9359 -16.9174 -16.9031 -16.8935 -16.8933 -16.8896 -16.8758 -16.8637
   -16.8031 -16.8024 -16.8022 -16.7995 -16.7943 -16.7926 -16.7875 -16.7866
    -7.3772  -7.3589  -7.0861  -7.0653  -7.0490  -7.0304  -6.4078  -6.3872
    -6.3787  -6.3593  -6.3544  -6.3299  -6.3094  -6.2914  -6.2812  -6.2622
    -6.2572  -6.2290  -6.1099  -6.0603  -6.0479  -6.0055  -5.9990  -5.9851
    -5.9743  -5.9472  -5.8441  -5.8241  -5.6670  -5.6620  -5.6495  -5.6331
    -5.6088  -5.6036  -5.5979  -5.5833  -5.5546  -5.4442  -5.4168  -5.3783
    -5.0903  -5.0892  -5.0597  -5.0527  -5.0252  -5.0242  -5.0156  -5.0064
    -4.9856  -4.9173  -4.8080  -4.7910  -4.7552  -4.7341  -4.7229  -4.6740
    -4.6702  -4.6571  -4.6565  -4.6539  -4.6489  -4.6456  -4.6200  -4.6110
    -4.5478  -4.4898  -4.4579  -4.4246  -4.4198  -4.3916  -4.3885  -4.3868
    -4.3714  -4.3521  -4.3424  -4.3404  -4.2897  -4.2795  -4.2763  -4.2595
    -4.2396  -4.2343  -4.2093  -4.1922  -4.1429  -4.1412  -4.1103  -4.0792
    -4.0578  -4.0578  -4.0141  -4.0127  -3.9360  -3.9353  -3.8802  -3.8553
    -3.8172  -3.8018  -3.7653  -3.7580  -3.7191  -3.7113  -3.7026  -3.6855
    -3.6651  -3.6440  -3.6415  -3.6205  -3.6123  -3.5861  -3.5802  -3.5317
    -3.5222  -3.5210  -3.4963  -3.4906  -3.4856  -3.4797  -3.4732  -3.4244
    -3.4012  -3.3915  -3.3670  -3.3547  -3.3424  -3.2627  -3.2561  -3.2073
    -3.1789  -3.1392  -3.0134  -3.0109  -2.8934  -2.8925  -2.8385  -2.8169
    -2.7857  -2.7693  -2.7240  -2.7003  -2.6766  -2.6440  -2.4268  -2.3862
    -2.3825  -2.3438  -2.2880  -2.2324  -2.2291  -2.1993  -2.1935  -2.1688
    -2.1562  -2.1561  -2.1492  -2.1457  -2.1255  -2.0673  -2.0289  -2.0263
    -1.9909  -1.9803  -1.9730  -1.7980  -1.7715  -1.7482  -1.6791  -1.6565
    -1.6245  -1.5848  -1.5723  -1.5540  -1.5485  -1.4934  -1.4227  -1.3748
    -1.3521  -1.3506  -1.3143  -1.2657  -1.2607  -1.2477  -1.2243  -1.2102
    -1.1433  -1.1016  -1.0852  -1.0329  -1.0180  -0.9308  -0.9042  -0.8199
     1.9694   2.0990   2.1659   2.2797   2.3013   2.3035   2.3479   2.3810
     2.3976   2.4691   2.5714   2.5811   2.6017   2.7183   2.7629   2.8205
     2.8286   2.8345   2.9146   2.9213   2.9224   2.9263   2.9339   3.1523
     3.2088   3.2577   3.3028   3.3146   3.3566   3.3733   3.4083   3.4860
     3.5003   3.5152   3.5247   3.5362   3.5436   3.5480   3.5643   3.6209
     3.6725   3.7003   3.7043   3.7080   3.7598   3.7891   3.7943   3.7987
     3.8222   3.8291   3.8715   3.8728   3.8896   3.9036   3.9080   3.9290
     3.9495   3.9714   3.9921   4.0207   4.0474   4.0635   4.0653   4.0670
     4.1182   4.1441   4.1528   4.1746   4.1760   4.1850

          k = 0.0000 0.2365-0.4545 (455636 PWs)   bands (ev):

   -19.4421 -19.3827 -19.2709 -19.2231 -19.0472 -18.9952 -18.9818 -18.9690
   -18.9252 -18.9250 -18.8679 -18.8206 -18.6452 -18.5951 -18.4625 -18.4285
   -18.1991 -18.1714 -18.0993 -18.0932 -18.0721 -18.0691 -18.0463 -18.0354
   -18.0105 -17.9930 -17.9586 -17.9360 -17.9308 -17.8945 -17.8526 -17.8178
   -17.6341 -17.6288 -17.6007 -17.5878 -17.5632 -17.5488 -17.5389 -17.5202
   -17.3230 -17.3098 -17.3072 -17.3034 -17.2920 -17.2895 -17.2760 -17.2738
   -16.9359 -16.9174 -16.9031 -16.8935 -16.8933 -16.8896 -16.8758 -16.8637
   -16.8031 -16.8024 -16.8022 -16.7995 -16.7943 -16.7926 -16.7875 -16.7866
    -7.3772  -7.3589  -7.0861  -7.0653  -7.0490  -7.0304  -6.4078  -6.3872
    -6.3787  -6.3593  -6.3544  -6.3299  -6.3094  -6.2914  -6.2812  -6.2622
    -6.2571  -6.2290  -6.1099  -6.0603  -6.0479  -6.0055  -5.9990  -5.9851
    -5.9743  -5.9472  -5.8441  -5.8241  -5.6670  -5.6620  -5.6495  -5.6331
    -5.6088  -5.6036  -5.5979  -5.5833  -5.5546  -5.4442  -5.4168  -5.3783
    -5.0903  -5.0892  -5.0597  -5.0527  -5.0252  -5.0242  -5.0156  -5.0064
    -4.9856  -4.9173  -4.8080  -4.7910  -4.7552  -4.7341  -4.7229  -4.6740
    -4.6702  -4.6571  -4.6565  -4.6539  -4.6489  -4.6456  -4.6200  -4.6110
    -4.5478  -4.4898  -4.4579  -4.4246  -4.4198  -4.3916  -4.3885  -4.3868
    -4.3714  -4.3521  -4.3424  -4.3404  -4.2897  -4.2795  -4.2763  -4.2595
    -4.2396  -4.2343  -4.2093  -4.1922  -4.1429  -4.1412  -4.1103  -4.0792
    -4.0578  -4.0578  -4.0141  -4.0127  -3.9360  -3.9353  -3.8802  -3.8553
    -3.8172  -3.8018  -3.7653  -3.7580  -3.7191  -3.7113  -3.7026  -3.6855
    -3.6651  -3.6440  -3.6415  -3.6205  -3.6123  -3.5861  -3.5802  -3.5317
    -3.5222  -3.5210  -3.4963  -3.4906  -3.4856  -3.4797  -3.4732  -3.4244
    -3.4012  -3.3915  -3.3670  -3.3547  -3.3424  -3.2627  -3.2561  -3.2073
    -3.1789  -3.1392  -3.0134  -3.0109  -2.8934  -2.8925  -2.8385  -2.8169
    -2.7857  -2.7693  -2.7240  -2.7003  -2.6766  -2.6440  -2.4268  -2.3862
    -2.3825  -2.3438  -2.2880  -2.2324  -2.2291  -2.1993  -2.1935  -2.1688
    -2.1562  -2.1561  -2.1492  -2.1457  -2.1255  -2.0673  -2.0289  -2.0263
    -1.9909  -1.9803  -1.9730  -1.7980  -1.7715  -1.7482  -1.6791  -1.6565
    -1.6245  -1.5848  -1.5723  -1.5540  -1.5485  -1.4934  -1.4227  -1.3748
    -1.3521  -1.3506  -1.3143  -1.2657  -1.2607  -1.2477  -1.2243  -1.2102
    -1.1433  -1.1016  -1.0852  -1.0329  -1.0180  -0.9308  -0.9042  -0.8199
     1.9694   2.1064   2.1657   2.2796   2.3013   2.3035   2.3476   2.3810
     2.3975   2.4742   2.5765   2.5863   2.5949   2.7181   2.7629   2.8199
     2.8317   2.8376   2.9141   2.9193   2.9207   2.9236   2.9374   3.1437
     3.2106   3.2596   3.3032   3.3149   3.3422   3.3742   3.4090   3.4839
     3.5006   3.5123   3.5160   3.5335   3.5365   3.5480   3.5615   3.6211
     3.6731   3.6992   3.7001   3.7031   3.7600   3.7892   3.7906   3.7932
     3.8224   3.8299   3.8659   3.8729   3.8866   3.9037   3.9080   3.9251
     3.9497   3.9654   3.9921   4.0208   4.0423   4.0635   4.0646   4.0671
     4.1184   4.1436   4.1536   4.1728   4.1762   4.1850

          k = 0.0000 0.4730 0.0000 (455674 PWs)   bands (ev):

   -19.3947 -19.3378 -19.3299 -19.2773 -19.0236 -18.9937 -18.9738 -18.9488
   -18.9470 -18.9054 -18.8945 -18.8546 -18.5977 -18.5533 -18.5326 -18.4938
   -18.1176 -18.0917 -18.0805 -18.0670 -18.0596 -18.0526 -18.0366 -18.0333
   -18.0251 -18.0116 -18.0075 -18.0025 -17.9764 -17.9669 -17.9342 -17.8991
   -17.5150 -17.5096 -17.4774 -17.4752 -17.4677 -17.4625 -17.4455 -17.4342
   -17.3950 -17.3928 -17.3813 -17.3660 -17.3659 -17.3642 -17.3587 -17.3418
   -16.9301 -16.9230 -16.9004 -16.8967 -16.8933 -16.8916 -16.8744 -16.8702
   -16.7994 -16.7980 -16.7964 -16.7951 -16.7942 -16.7910 -16.7894 -16.7872
    -7.2804  -7.2613  -7.1551  -7.1357  -6.9138  -6.8904  -6.6408  -6.6128
    -6.3372  -6.3038  -6.3026  -6.2848  -6.2701  -6.2494  -6.2378  -6.1994
    -6.1433  -6.1228  -6.1152  -6.0934  -6.0872  -6.0596  -6.0576  -6.0478
    -6.0303  -6.0137  -5.8635  -5.8256  -5.8001  -5.7818  -5.7264  -5.7029
    -5.5572  -5.5304  -5.5159  -5.5036  -5.4767  -5.4720  -5.3348  -5.3101
    -5.2882  -5.2534  -5.1408  -5.0874  -5.0599  -5.0520  -5.0155  -5.0055
    -4.9686  -4.9232  -4.8980  -4.7791  -4.7632  -4.7395  -4.6965  -4.6716
    -4.6708  -4.6542  -4.6533  -4.6520  -4.6495  -4.6447  -4.6371  -4.5809
    -4.5542  -4.5265  -4.4889  -4.4457  -4.4415  -4.4229  -4.4059  -4.3936
    -4.3916  -4.3908  -4.3873  -4.3805  -4.3644  -4.3640  -4.2800  -4.2763
    -4.2449  -4.1785  -4.1138  -4.0991  -4.0872  -4.0858  -4.0791  -4.0698
    -4.0602  -4.0321  -4.0293  -4.0215  -3.9940  -3.9823  -3.9231  -3.9224
    -3.8811  -3.8788  -3.7833  -3.7269  -3.7223  -3.7032  -3.6170  -3.6162
    -3.6161  -3.5944  -3.5930  -3.5626  -3.5140  -3.5113  -3.4959  -3.4902
    -3.4787  -3.4639  -3.4633  -3.4529  -3.4089  -3.3901  -3.3566  -3.3541
    -3.3190  -3.3012  -3.2670  -3.2520  -3.2464  -3.2092  -3.2068  -3.1784
    -3.1685  -3.1666  -3.1174  -3.1079  -3.0914  -2.9908  -2.9340  -2.9005
    -2.7042  -2.6689  -2.6621  -2.6223  -2.5923  -2.5194  -2.5044  -2.5042
    -2.4498  -2.3934  -2.3611  -2.3388  -2.3320  -2.2641  -2.1638  -2.1357
    -2.1345  -2.1175  -2.1137  -2.0663  -2.0508  -2.0422  -1.9893  -1.9548
    -1.9481  -1.8834  -1.8760  -1.8304  -1.8223  -1.8013  -1.7942  -1.7478
    -1.6529  -1.6461  -1.6453  -1.6278  -1.5852  -1.5206  -1.5022  -1.4539
    -1.4459  -1.3100  -1.3065  -1.2833  -1.2788  -1.2618  -1.2203  -1.2150
    -1.0955  -1.0520  -1.0354  -1.0325  -0.9938  -0.9775  -0.9594  -0.9116
     2.0382   2.1516   2.1823   2.3108   2.3111   2.4338   2.4351   2.4392
     2.4813   2.4870   2.4990   2.6124   2.6319   2.6397   2.6726   2.7124
     2.7177   2.7244   2.7300   2.7368   2.9221   3.0039   3.0319   3.1299
     3.2937   3.3084   3.3219   3.3317   3.3637   3.3638   3.3663   3.4297
     3.4368   3.4387   3.4687   3.5368   3.5621   3.5874   3.6522   3.6554
     3.6590   3.6658   3.6883   3.6932   3.7279   3.8404   3.8466   3.8507
     3.8614   3.8793   3.8932   3.9093   3.9100   3.9364   3.9511   3.9948
     4.0004   4.0023   4.0204   4.0227   4.0528   4.0560   4.0786   4.0807
     4.0940   4.0955   4.0956   4.1139   4.1494   4.1528

          k = 0.0000 0.4730-0.4545 (455692 PWs)   bands (ev):

   -19.3947 -19.3378 -19.3299 -19.2773 -19.0236 -18.9937 -18.9738 -18.9488
   -18.9470 -18.9054 -18.8945 -18.8546 -18.5977 -18.5533 -18.5326 -18.4938
   -18.1176 -18.0917 -18.0805 -18.0670 -18.0596 -18.0526 -18.0366 -18.0333
   -18.0251 -18.0116 -18.0075 -18.0025 -17.9764 -17.9669 -17.9342 -17.8991
   -17.5150 -17.5096 -17.4774 -17.4752 -17.4677 -17.4625 -17.4455 -17.4342
   -17.3950 -17.3928 -17.3813 -17.3660 -17.3659 -17.3642 -17.3587 -17.3418
   -16.9301 -16.9230 -16.9004 -16.8967 -16.8933 -16.8916 -16.8744 -16.8702
   -16.7994 -16.7980 -16.7964 -16.7951 -16.7942 -16.7910 -16.7894 -16.7872
    -7.2804  -7.2613  -7.1551  -7.1357  -6.9138  -6.8904  -6.6408  -6.6128
    -6.3372  -6.3038  -6.3026  -6.2848  -6.2701  -6.2494  -6.2378  -6.1994
    -6.1433  -6.1228  -6.1152  -6.0934  -6.0872  -6.0596  -6.0576  -6.0478
    -6.0303  -6.0137  -5.8635  -5.8256  -5.8001  -5.7818  -5.7264  -5.7029
    -5.5572  -5.5304  -5.5159  -5.5036  -5.4767  -5.4720  -5.3348  -5.3101
    -5.2882  -5.2534  -5.1408  -5.0874  -5.0599  -5.0520  -5.0155  -5.0055
    -4.9686  -4.9232  -4.8980  -4.7791  -4.7632  -4.7395  -4.6965  -4.6716
    -4.6708  -4.6542  -4.6533  -4.6520  -4.6495  -4.6447  -4.6371  -4.5809
    -4.5542  -4.5265  -4.4889  -4.4457  -4.4415  -4.4229  -4.4059  -4.3936
    -4.3916  -4.3908  -4.3873  -4.3805  -4.3644  -4.3640  -4.2800  -4.2763
    -4.2449  -4.1785  -4.1138  -4.0991  -4.0872  -4.0858  -4.0791  -4.0698
    -4.0602  -4.0320  -4.0293  -4.0215  -3.9940  -3.9823  -3.9231  -3.9224
    -3.8811  -3.8788  -3.7833  -3.7269  -3.7223  -3.7032  -3.6170  -3.6162
    -3.6161  -3.5944  -3.5930  -3.5626  -3.5140  -3.5113  -3.4959  -3.4902
    -3.4787  -3.4639  -3.4633  -3.4529  -3.4089  -3.3901  -3.3566  -3.3541
    -3.3190  -3.3012  -3.2670  -3.2520  -3.2464  -3.2092  -3.2068  -3.1784
    -3.1685  -3.1666  -3.1174  -3.1079  -3.0914  -2.9908  -2.9340  -2.9005
    -2.7042  -2.6689  -2.6621  -2.6223  -2.5923  -2.5194  -2.5044  -2.5042
    -2.4498  -2.3934  -2.3611  -2.3388  -2.3320  -2.2641  -2.1638  -2.1357
    -2.1345  -2.1175  -2.1137  -2.0663  -2.0508  -2.0422  -1.9893  -1.9548
    -1.9481  -1.8834  -1.8760  -1.8304  -1.8223  -1.8013  -1.7942  -1.7478
    -1.6529  -1.6461  -1.6452  -1.6278  -1.5852  -1.5206  -1.5022  -1.4539
    -1.4459  -1.3100  -1.3065  -1.2833  -1.2788  -1.2618  -1.2203  -1.2150
    -1.0954  -1.0520  -1.0354  -1.0325  -0.9938  -0.9775  -0.9594  -0.9116
     2.0382   2.1516   2.1892   2.3105   2.3169   2.4335   2.4351   2.4391
     2.4813   2.4846   2.4989   2.6124   2.6366   2.6444   2.6719   2.7118
     2.7173   2.7284   2.7341   2.7360   2.9138   2.9943   3.0317   3.1321
     3.2949   3.3084   3.3229   3.3322   3.3643   3.3643   3.3674   3.4260
     3.4302   3.4395   3.4693   3.5321   3.5491   3.5760   3.6499   3.6510
     3.6528   3.6552   3.6890   3.6922   3.7281   3.8406   3.8467   3.8489
     3.8616   3.8794   3.8934   3.9056   3.9095   3.9343   3.9456   3.9948
     3.9999   4.0015   4.0207   4.0217   4.0532   4.0560   4.0789   4.0808
     4.0940   4.0954   4.0955   4.1118   4.1497   4.1530

          k = 0.2000 0.0000 0.0000 (455698 PWs)   bands (ev):

   -19.4400 -19.3799 -19.2299 -19.1845 -19.1720 -19.1151 -19.0212 -18.9774
   -18.8653 -18.8130 -18.7983 -18.7527 -18.6687 -18.6169 -18.4623 -18.4278
   -18.2396 -18.2099 -18.1476 -18.1214 -18.0657 -18.0512 -18.0422 -18.0239
   -18.0183 -17.9772 -17.9425 -17.9089 -17.8606 -17.8151 -17.7864 -17.7549
   -17.7129 -17.7053 -17.6825 -17.6644 -17.6091 -17.5855 -17.5833 -17.5582
   -17.3004 -17.2857 -17.2827 -17.2681 -17.2663 -17.2636 -17.2469 -17.2449
   -16.9361 -16.9139 -16.9118 -16.8970 -16.8853 -16.8845 -16.8763 -16.8615
   -16.8061 -16.8055 -16.8050 -16.8037 -16.7934 -16.7924 -16.7879 -16.7860
    -7.3683  -7.3497  -7.1074  -7.0869  -6.9548  -6.9357  -6.7445  -6.7179
    -6.5821  -6.5553  -6.4064  -6.3837  -6.3197  -6.2830  -6.2164  -6.1969
    -6.0039  -5.9955  -5.9809  -5.9627  -5.9508  -5.9457  -5.9342  -5.8904
    -5.8782  -5.8543  -5.8526  -5.7928  -5.7159  -5.6762  -5.6564  -5.6314
    -5.6019  -5.5982  -5.5706  -5.5432  -5.5326  -5.5246  -5.5023  -5.4101
    -5.2131  -5.1556  -5.1194  -5.1095  -5.0946  -5.0943  -4.8814  -4.8749
    -4.8335  -4.7858  -4.7610  -4.7582  -4.7419  -4.7401  -4.6874  -4.6826
    -4.6709  -4.6663  -4.6528  -4.6517  -4.6499  -4.6299  -4.6263  -4.6018
    -4.4502  -4.4342  -4.4206  -4.4138  -4.4034  -4.3980  -4.3895  -4.3831
    -4.3824  -4.3570  -4.3472  -4.3237  -4.3082  -4.3040  -4.2829  -4.2512
    -4.2428  -4.2168  -4.2116  -4.1907  -4.1705  -4.1443  -4.1252  -4.0859
    -4.0598  -4.0426  -4.0302  -4.0273  -3.9814  -3.9614  -3.9391  -3.9322
    -3.8939  -3.8487  -3.8262  -3.8080  -3.7943  -3.7707  -3.7297  -3.6994
    -3.6957  -3.6578  -3.6536  -3.6396  -3.6309  -3.5953  -3.5842  -3.5836
    -3.5737  -3.5084  -3.5037  -3.5014  -3.5011  -3.5001  -3.4535  -3.4409
    -3.4177  -3.4107  -3.3833  -3.3832  -3.2962  -3.2683  -3.2392  -3.1849
    -3.1592  -3.1458  -3.0335  -2.9691  -2.9359  -2.9163  -2.8851  -2.8398
    -2.7600  -2.7559  -2.7517  -2.5843  -2.5575  -2.5483  -2.4402  -2.3625
    -2.3406  -2.3391  -2.3362  -2.2911  -2.2763  -2.2719  -2.2710  -2.2441
    -2.1991  -2.1532  -2.1121  -2.1111  -2.0990  -2.0627  -2.0370  -1.9966
    -1.9873  -1.9641  -1.8491  -1.8441  -1.7661  -1.7346  -1.7094  -1.6239
    -1.6108  -1.5805  -1.5413  -1.5300  -1.4765  -1.4412  -1.3816  -1.3804
    -1.3316  -1.3314  -1.3046  -1.2789  -1.2721  -1.2326  -1.2255  -1.2110
    -1.1724  -1.1417  -1.0942  -1.0474  -0.9979  -0.9311  -0.8647  -0.7903
     1.9523   2.0923   2.1217   2.1781   2.2022   2.2698   2.3317   2.3955
     2.5094   2.5205   2.5707   2.6039   2.6366   2.7334   2.8059   2.8109
     2.8131   2.8151   2.8742   2.9228   2.9376   3.0741   3.1567   3.1661
     3.2306   3.2739   3.2870   3.2966   3.3113   3.3183   3.3762   3.3781
     3.3951   3.5024   3.5091   3.5313   3.5697   3.5881   3.6045   3.6046
     3.6701   3.6761   3.6978   3.7075   3.7335   3.7424   3.7496   3.7957
     3.7968   3.8059   3.8065   3.8954   3.8960   3.8974   3.9601   3.9729
     3.9839   4.0360   4.0369   4.0459   4.0488   4.0722   4.0753   4.1026
     4.1036   4.1195   4.2118   4.2124   4.2244   4.2290

          k = 0.2000 0.0000-0.4545 (455688 PWs)   bands (ev):

   -19.4400 -19.3799 -19.2299 -19.1845 -19.1720 -19.1151 -19.0212 -18.9774
   -18.8653 -18.8130 -18.7983 -18.7527 -18.6687 -18.6169 -18.4623 -18.4278
   -18.2396 -18.2099 -18.1476 -18.1214 -18.0657 -18.0512 -18.0422 -18.0239
   -18.0183 -17.9772 -17.9425 -17.9089 -17.8606 -17.8151 -17.7864 -17.7549
   -17.7129 -17.7053 -17.6825 -17.6644 -17.6091 -17.5855 -17.5833 -17.5582
   -17.3004 -17.2857 -17.2827 -17.2681 -17.2663 -17.2636 -17.2469 -17.2449
   -16.9361 -16.9139 -16.9118 -16.8970 -16.8853 -16.8845 -16.8763 -16.8615
   -16.8061 -16.8055 -16.8050 -16.8037 -16.7934 -16.7924 -16.7879 -16.7860
    -7.3683  -7.3497  -7.1074  -7.0869  -6.9548  -6.9357  -6.7445  -6.7179
    -6.5821  -6.5553  -6.4064  -6.3837  -6.3197  -6.2830  -6.2164  -6.1969
    -6.0039  -5.9955  -5.9809  -5.9627  -5.9508  -5.9457  -5.9342  -5.8904
    -5.8782  -5.8543  -5.8526  -5.7928  -5.7158  -5.6762  -5.6564  -5.6314
    -5.6019  -5.5982  -5.5706  -5.5432  -5.5326  -5.5246  -5.5023  -5.4101
    -5.2131  -5.1556  -5.1194  -5.1095  -5.0946  -5.0943  -4.8814  -4.8749
    -4.8335  -4.7857  -4.7610  -4.7582  -4.7419  -4.7401  -4.6874  -4.6826
    -4.6709  -4.6663  -4.6528  -4.6517  -4.6499  -4.6299  -4.6263  -4.6018
    -4.4502  -4.4342  -4.4206  -4.4138  -4.4034  -4.3980  -4.3895  -4.3831
    -4.3824  -4.3570  -4.3472  -4.3237  -4.3082  -4.3040  -4.2829  -4.2512
    -4.2428  -4.2168  -4.2116  -4.1907  -4.1705  -4.1443  -4.1252  -4.0859
    -4.0598  -4.0426  -4.0302  -4.0273  -3.9814  -3.9614  -3.9391  -3.9322
    -3.8939  -3.8487  -3.8263  -3.8080  -3.7943  -3.7707  -3.7297  -3.6994
    -3.6957  -3.6578  -3.6536  -3.6397  -3.6309  -3.5953  -3.5842  -3.5836
    -3.5737  -3.5084  -3.5037  -3.5014  -3.5011  -3.5001  -3.4535  -3.4409
    -3.4177  -3.4107  -3.3833  -3.3832  -3.2962  -3.2683  -3.2392  -3.1849
    -3.1592  -3.1458  -3.0335  -2.9691  -2.9359  -2.9163  -2.8851  -2.8398
    -2.7600  -2.7559  -2.7517  -2.5843  -2.5575  -2.5483  -2.4402  -2.3625
    -2.3406  -2.3391  -2.3362  -2.2911  -2.2764  -2.2719  -2.2710  -2.2441
    -2.1991  -2.1532  -2.1121  -2.1111  -2.0990  -2.0627  -2.0370  -1.9966
    -1.9873  -1.9641  -1.8491  -1.8441  -1.7661  -1.7346  -1.7094  -1.6239
    -1.6108  -1.5805  -1.5413  -1.5300  -1.4765  -1.4412  -1.3816  -1.3804
    -1.3316  -1.3314  -1.3046  -1.2789  -1.2721  -1.2326  -1.2255  -1.2110
    -1.1723  -1.1417  -1.0942  -1.0474  -0.9979  -0.9311  -0.8647  -0.7903
     1.9522   2.0997   2.1216   2.1780   2.2021   2.2698   2.3317   2.4016
     2.5092   2.5204   2.5707   2.6077   2.6289   2.7378   2.8043   2.8138
     2.8148   2.8177   2.8702   2.9254   2.9372   3.0738   3.1590   3.1639
     3.2325   3.2754   3.2874   3.2970   3.3099   3.3129   3.3608   3.3681
     3.3894   3.5029   3.5095   3.5319   3.5699   3.5874   3.6005   3.6047
     3.6668   3.6687   3.6968   3.7080   3.7339   3.7340   3.7498   3.7946
     3.7958   3.8030   3.8061   3.8887   3.8961   3.8977   3.9524   3.9730
     3.9840   4.0354   4.0381   4.0460   4.0488   4.0723   4.0756   4.0957
     4.1011   4.1190   4.2105   4.2122   4.2245   4.2301

          k = 0.2000 0.2365 0.0000 (455567 PWs)   bands (ev):

   -19.4231 -19.3638 -19.2542 -19.2064 -19.1589 -19.1029 -19.0373 -18.9917
   -18.8590 -18.8074 -18.8045 -18.7584 -18.6523 -18.6028 -18.4921 -18.4562
   -18.2056 -18.1761 -18.1387 -18.1112 -18.0583 -18.0406 -18.0362 -18.0338
   -18.0037 -17.9975 -17.9775 -17.9458 -17.9172 -17.8782 -17.8488 -17.8162
   -17.6361 -17.6349 -17.6020 -17.5946 -17.5587 -17.5487 -17.5334 -17.5204
   -17.3229 -17.3120 -17.3063 -17.3010 -17.2922 -17.2920 -17.2748 -17.2729
   -16.9340 -16.9159 -16.9106 -16.8987 -16.8862 -16.8851 -16.8763 -16.8652
   -16.8036 -16.8025 -16.8017 -16.7996 -16.7942 -16.7928 -16.7872 -16.7866
    -7.3326  -7.3135  -7.0619  -7.0408  -6.9841  -6.9641  -6.7127  -6.6849
    -6.5579  -6.5294  -6.3396  -6.3303  -6.3073  -6.3036  -6.2684  -6.2319
    -6.1668  -6.1471  -6.0137  -5.9976  -5.9745  -5.9612  -5.9480  -5.9124
    -5.8721  -5.8517  -5.8298  -5.8147  -5.7774  -5.7208  -5.6633  -5.6198
    -5.6155  -5.5656  -5.5329  -5.4785  -5.4245  -5.4161  -5.4159  -5.3778
    -5.2067  -5.2005  -5.1520  -5.1512  -5.0642  -4.9963  -4.9603  -4.9248
    -4.8784  -4.8492  -4.8317  -4.7820  -4.7511  -4.7217  -4.7176  -4.7046
    -4.6862  -4.6833  -4.6628  -4.6585  -4.6568  -4.6527  -4.6430  -4.6148
    -4.6142  -4.5583  -4.4986  -4.4473  -4.4178  -4.4168  -4.3924  -4.3922
    -4.3840  -4.3716  -4.3580  -4.3517  -4.3516  -4.3199  -4.2698  -4.2211
    -4.1916  -4.1807  -4.1748  -4.1436  -4.1387  -4.0975  -4.0970  -4.0744
    -4.0586  -4.0421  -4.0419  -4.0411  -3.9648  -3.9345  -3.9146  -3.8634
    -3.8220  -3.7986  -3.7822  -3.7717  -3.7710  -3.7110  -3.6846  -3.6762
    -3.6487  -3.6193  -3.6114  -3.6067  -3.6064  -3.5986  -3.5766  -3.5623
    -3.5337  -3.5333  -3.5211  -3.5169  -3.4690  -3.4683  -3.4507  -3.4356
    -3.4305  -3.3802  -3.3495  -3.3191  -3.3170  -3.2668  -3.1988  -3.1822
    -3.1543  -3.0881  -3.0376  -2.9409  -2.9142  -2.9045  -2.8938  -2.8707
    -2.8489  -2.7044  -2.6979  -2.6817  -2.6348  -2.6287  -2.4281  -2.4067
    -2.3873  -2.3133  -2.2964  -2.2917  -2.2632  -2.2453  -2.2394  -2.2024
    -2.1879  -2.1739  -2.1419  -2.1042  -2.0528  -2.0174  -2.0043  -1.9741
    -1.9708  -1.9611  -1.9506  -1.8017  -1.7683  -1.7560  -1.7025  -1.6688
    -1.6669  -1.6344  -1.5969  -1.5095  -1.4980  -1.4766  -1.4342  -1.3890
    -1.3885  -1.3743  -1.2884  -1.2788  -1.2774  -1.2380  -1.2245  -1.2125
    -1.1416  -1.1129  -1.0733  -1.0363  -1.0118  -0.9490  -0.8871  -0.8266
     1.9767   2.1207   2.1736   2.2128   2.2597   2.3256   2.3377   2.3814
     2.4187   2.4869   2.5420   2.6079   2.6947   2.7210   2.7503   2.7692
     2.7855   2.8107   2.9151   2.9294   2.9431   3.0180   3.0306   3.1668
     3.1904   3.2675   3.2827   3.2923   3.3156   3.3569   3.3805   3.3957
     3.4664   3.4893   3.5047   3.5121   3.5343   3.5433   3.6392   3.6429
     3.6573   3.6898   3.7168   3.7304   3.7627   3.7906   3.7943   3.7979
     3.8034   3.8270   3.8433   3.8795   3.9016   3.9127   3.9414   3.9706
     3.9975   4.0055   4.0092   4.0294   4.0653   4.0691   4.0704   4.0830
     4.0941   4.1533   4.1593   4.1650   4.1971   4.2003

          k = 0.2000 0.2365-0.4545 (455692 PWs)   bands (ev):

   -19.4231 -19.3638 -19.2542 -19.2064 -19.1589 -19.1029 -19.0373 -18.9917
   -18.8590 -18.8074 -18.8045 -18.7584 -18.6522 -18.6028 -18.4921 -18.4562
   -18.2056 -18.1761 -18.1387 -18.1112 -18.0583 -18.0406 -18.0362 -18.0338
   -18.0037 -17.9975 -17.9775 -17.9458 -17.9172 -17.8782 -17.8488 -17.8162
   -17.6361 -17.6349 -17.6020 -17.5946 -17.5587 -17.5487 -17.5334 -17.5204
   -17.3229 -17.3120 -17.3063 -17.3010 -17.2922 -17.2920 -17.2748 -17.2729
   -16.9340 -16.9159 -16.9106 -16.8987 -16.8862 -16.8851 -16.8763 -16.8652
   -16.8036 -16.8025 -16.8017 -16.7996 -16.7942 -16.7928 -16.7872 -16.7866
    -7.3326  -7.3135  -7.0619  -7.0408  -6.9841  -6.9641  -6.7127  -6.6849
    -6.5579  -6.5294  -6.3396  -6.3303  -6.3073  -6.3036  -6.2684  -6.2319
    -6.1668  -6.1471  -6.0137  -5.9976  -5.9745  -5.9612  -5.9480  -5.9124
    -5.8721  -5.8517  -5.8298  -5.8147  -5.7774  -5.7208  -5.6633  -5.6198
    -5.6155  -5.5656  -5.5329  -5.4785  -5.4245  -5.4161  -5.4159  -5.3778
    -5.2067  -5.2005  -5.1520  -5.1512  -5.0642  -4.9963  -4.9603  -4.9248
    -4.8784  -4.8492  -4.8317  -4.7820  -4.7511  -4.7217  -4.7176  -4.7046
    -4.6862  -4.6833  -4.6628  -4.6585  -4.6568  -4.6527  -4.6430  -4.6148
    -4.6142  -4.5583  -4.4986  -4.4473  -4.4178  -4.4168  -4.3924  -4.3922
    -4.3840  -4.3716  -4.3580  -4.3517  -4.3516  -4.3199  -4.2698  -4.2211
    -4.1916  -4.1807  -4.1748  -4.1436  -4.1387  -4.0975  -4.0970  -4.0744
    -4.0586  -4.0421  -4.0419  -4.0411  -3.9648  -3.9345  -3.9146  -3.8634
    -3.8220  -3.7986  -3.7822  -3.7717  -3.7710  -3.7110  -3.6846  -3.6762
    -3.6487  -3.6193  -3.6114  -3.6067  -3.6064  -3.5986  -3.5766  -3.5623
    -3.5337  -3.5333  -3.5211  -3.5169  -3.4690  -3.4683  -3.4507  -3.4356
    -3.4305  -3.3802  -3.3495  -3.3191  -3.3170  -3.2668  -3.1988  -3.1822
    -3.1543  -3.0881  -3.0376  -2.9409  -2.9142  -2.9045  -2.8938  -2.8707
    -2.8489  -2.7044  -2.6979  -2.6817  -2.6348  -2.6287  -2.4281  -2.4067
    -2.3873  -2.3133  -2.2964  -2.2917  -2.2632  -2.2453  -2.2394  -2.2024
    -2.1879  -2.1739  -2.1419  -2.1042  -2.0528  -2.0174  -2.0043  -1.9741
    -1.9708  -1.9611  -1.9506  -1.8017  -1.7683  -1.7560  -1.7025  -1.6688
    -1.6669  -1.6344  -1.5969  -1.5095  -1.4980  -1.4766  -1.4342  -1.3890
    -1.3885  -1.3743  -1.2884  -1.2788  -1.2774  -1.2380  -1.2245  -1.2125
    -1.1416  -1.1129  -1.0733  -1.0363  -1.0118  -0.9490  -0.8871  -0.8266
     1.9766   2.1280   2.1734   2.2126   2.2596   2.3256   2.3377   2.3814
     2.4246   2.4919   2.5417   2.6023   2.6943   2.7248   2.7545   2.7675
     2.7854   2.8082   2.9131   2.9318   2.9464   3.0172   3.0295   3.1586
     3.1927   3.2689   3.2841   3.2929   3.3160   3.3426   3.3791   3.3826
     3.4668   3.4897   3.5055   3.5097   3.5342   3.5436   3.6331   3.6431
     3.6509   3.6904   3.7104   3.7289   3.7630   3.7856   3.7900   3.7980
     3.8036   3.8272   3.8380   3.8803   3.8975   3.9128   3.9417   3.9707
     3.9976   4.0001   4.0040   4.0295   4.0654   4.0689   4.0689   4.0802
     4.0943   4.1538   4.1595   4.1644   4.1948   4.2005

          k = 0.2000 0.4730 0.0000 (455629 PWs)   bands (ev):

   -19.3762 -19.3195 -19.3123 -19.2598 -19.1235 -19.0774 -19.0701 -19.0279
   -18.8423 -18.8211 -18.7925 -18.7735 -18.6093 -18.5650 -18.5511 -18.5116
   -18.1328 -18.1136 -18.1036 -18.0825 -18.0778 -18.0502 -18.0412 -18.0337
   -18.0206 -18.0062 -17.9942 -17.9867 -17.9620 -17.9542 -17.9304 -17.8980
   -17.5165 -17.5114 -17.4786 -17.4778 -17.4654 -17.4618 -17.4422 -17.4339
   -17.3976 -17.3945 -17.3769 -17.3686 -17.3674 -17.3656 -17.3528 -17.3418
   -16.9285 -16.9215 -16.9074 -16.9028 -16.8869 -16.8862 -16.8750 -16.8711
   -16.7995 -16.7987 -16.7964 -16.7946 -16.7943 -16.7913 -16.7890 -16.7872
    -7.2364  -7.2164  -7.1141  -7.0935  -6.8692  -6.8454  -6.6307  -6.6056
    -6.5995  -6.5775  -6.5497  -6.5163  -6.3321  -6.3017  -6.2107  -6.1822
    -6.1201  -6.0916  -6.0165  -5.9893  -5.9832  -5.9588  -5.9110  -5.8955
    -5.8777  -5.8474  -5.8456  -5.8105  -5.8073  -5.7875  -5.7392  -5.7320
    -5.7058  -5.6879  -5.4943  -5.4772  -5.4560  -5.4360  -5.3123  -5.2410
    -5.1889  -5.1879  -5.1822  -5.1349  -5.1348  -5.0782  -5.0658  -5.0112
    -4.8858  -4.8793  -4.8762  -4.7713  -4.7584  -4.7581  -4.7001  -4.6837
    -4.6823  -4.6703  -4.6524  -4.6513  -4.6474  -4.6449  -4.6351  -4.6137
    -4.5908  -4.5681  -4.5120  -4.4876  -4.4532  -4.4373  -4.4153  -4.4012
    -4.3993  -4.3814  -4.3747  -4.3643  -4.3630  -4.3201  -4.2746  -4.2691
    -4.2410  -4.2028  -4.1839  -4.1823  -4.1484  -4.1156  -4.0912  -4.0830
    -4.0827  -4.0634  -4.0603  -3.9642  -3.9348  -3.9269  -3.9106  -3.8930
    -3.7962  -3.7787  -3.7441  -3.7371  -3.7263  -3.7073  -3.6239  -3.6183
    -3.6181  -3.6094  -3.5954  -3.5674  -3.5566  -3.5059  -3.5035  -3.5019
    -3.4939  -3.4886  -3.4663  -3.4389  -3.4215  -3.4042  -3.3936  -3.3769
    -3.3747  -3.3571  -3.3008  -3.2735  -3.2324  -3.1801  -3.1796  -3.1683
    -3.1205  -3.1177  -3.0886  -3.0783  -3.0383  -2.9788  -2.9196  -2.9019
    -2.7172  -2.6944  -2.6148  -2.5823  -2.5643  -2.5279  -2.5120  -2.4999
    -2.4183  -2.3966  -2.3347  -2.3266  -2.3254  -2.2379  -2.2291  -2.1910
    -2.1395  -2.1328  -2.1196  -2.1124  -2.1017  -2.0610  -1.9473  -1.9354
    -1.9169  -1.9124  -1.8846  -1.8539  -1.8167  -1.7893  -1.7575  -1.7334
    -1.7025  -1.6507  -1.5985  -1.5859  -1.5824  -1.5459  -1.5008  -1.4869
    -1.4229  -1.3422  -1.3225  -1.3083  -1.2576  -1.2468  -1.2204  -1.2154
    -1.0914  -1.0512  -1.0459  -1.0179  -0.9951  -0.9932  -0.9457  -0.9138
     2.0492   2.1664   2.2028   2.3115   2.3249   2.3299   2.4018   2.4368
     2.4864   2.4950   2.5007   2.5648   2.5826   2.5923   2.6520   2.6764
     2.7986   2.8091   2.8524   2.8691   2.9149   2.9898   3.0716   3.1267
     3.2398   3.3048   3.3091   3.3194   3.3698   3.3747   3.3782   3.4203
     3.4228   3.4363   3.4449   3.4693   3.5291   3.5399   3.5930   3.6507
     3.6673   3.6847   3.7331   3.7351   3.7464   3.8368   3.8371   3.8500
     3.8516   3.8647   3.8693   3.9017   3.9234   3.9365   3.9572   3.9727
     3.9950   4.0173   4.0246   4.0481   4.0581   4.0612   4.0818   4.0869
     4.0994   4.1030   4.1068   4.1102   4.1550   4.1569

          k = 0.2000 0.4730-0.4545 (455610 PWs)   bands (ev):

   -19.3762 -19.3195 -19.3123 -19.2598 -19.1235 -19.0774 -19.0701 -19.0279
   -18.8423 -18.8211 -18.7925 -18.7735 -18.6093 -18.5650 -18.5511 -18.5116
   -18.1328 -18.1136 -18.1036 -18.0825 -18.0778 -18.0502 -18.0412 -18.0337
   -18.0206 -18.0062 -17.9942 -17.9867 -17.9620 -17.9542 -17.9304 -17.8980
   -17.5165 -17.5114 -17.4786 -17.4778 -17.4654 -17.4618 -17.4422 -17.4339
   -17.3976 -17.3945 -17.3769 -17.3686 -17.3674 -17.3656 -17.3528 -17.3418
   -16.9285 -16.9215 -16.9074 -16.9028 -16.8869 -16.8862 -16.8750 -16.8711
   -16.7995 -16.7987 -16.7964 -16.7946 -16.7943 -16.7913 -16.7890 -16.7872
    -7.2364  -7.2164  -7.1141  -7.0935  -6.8692  -6.8454  -6.6307  -6.6056
    -6.5995  -6.5775  -6.5497  -6.5163  -6.3321  -6.3017  -6.2107  -6.1822
    -6.1201  -6.0916  -6.0165  -5.9893  -5.9832  -5.9588  -5.9110  -5.8955
    -5.8777  -5.8474  -5.8456  -5.8105  -5.8073  -5.7875  -5.7392  -5.7320
    -5.7058  -5.6879  -5.4943  -5.4772  -5.4560  -5.4360  -5.3123  -5.2410
    -5.1889  -5.1879  -5.1822  -5.1349  -5.1348  -5.0782  -5.0658  -5.0112
    -4.8858  -4.8793  -4.8762  -4.7713  -4.7584  -4.7581  -4.7001  -4.6837
    -4.6823  -4.6703  -4.6524  -4.6513  -4.6474  -4.6449  -4.6351  -4.6137
    -4.5908  -4.5681  -4.5120  -4.4876  -4.4532  -4.4373  -4.4153  -4.4012
    -4.3993  -4.3814  -4.3747  -4.3643  -4.3630  -4.3201  -4.2746  -4.2691
    -4.2410  -4.2028  -4.1839  -4.1823  -4.1484  -4.1156  -4.0911  -4.0830
    -4.0827  -4.0634  -4.0603  -3.9642  -3.9348  -3.9269  -3.9106  -3.8930
    -3.7962  -3.7787  -3.7441  -3.7371  -3.7263  -3.7073  -3.6239  -3.6183
    -3.6181  -3.6094  -3.5954  -3.5674  -3.5566  -3.5059  -3.5035  -3.5019
    -3.4939  -3.4886  -3.4663  -3.4389  -3.4215  -3.4042  -3.3936  -3.3769
    -3.3747  -3.3571  -3.3008  -3.2735  -3.2324  -3.1801  -3.1797  -3.1683
    -3.1205  -3.1177  -3.0886  -3.0783  -3.0383  -2.9788  -2.9196  -2.9019
    -2.7172  -2.6944  -2.6148  -2.5823  -2.5643  -2.5279  -2.5120  -2.4999
    -2.4183  -2.3966  -2.3347  -2.3266  -2.3254  -2.2379  -2.2291  -2.1910
    -2.1395  -2.1328  -2.1196  -2.1124  -2.1017  -2.0610  -1.9473  -1.9354
    -1.9169  -1.9124  -1.8846  -1.8539  -1.8167  -1.7893  -1.7575  -1.7334
    -1.7025  -1.6507  -1.5985  -1.5859  -1.5824  -1.5460  -1.5008  -1.4869
    -1.4229  -1.3422  -1.3225  -1.3083  -1.2576  -1.2468  -1.2204  -1.2154
    -1.0914  -1.0512  -1.0459  -1.0179  -0.9951  -0.9932  -0.9457  -0.9138
     2.0491   2.1664   2.2097   2.3113   2.3244   2.3359   2.4018   2.4366
     2.4919   2.4931   2.5007   2.5645   2.5823   2.5971   2.6517   2.6756
     2.8024   2.8083   2.8513   2.8722   2.9076   2.9830   3.0690   3.1288
     3.2411   3.3062   3.3100   3.3188   3.3703   3.3755   3.3791   3.4119
     3.4210   3.4306   3.4370   3.4699   3.5201   3.5334   3.5887   3.6462
     3.6647   3.6854   3.7334   3.7344   3.7470   3.8371   3.8373   3.8439
     3.8518   3.8588   3.8695   3.9018   3.9191   3.9367   3.9543   3.9673
     3.9950   4.0177   4.0249   4.0467   4.0585   4.0613   4.0820   4.0870
     4.0983   4.1031   4.1061   4.1083   4.1547   4.1552

          k = 0.2000-0.4730 0.0000 (455629 PWs)   bands (ev):

   -19.3761 -19.3194 -19.3124 -19.2599 -19.1238 -19.0771 -19.0703 -19.0276
   -18.8418 -18.8216 -18.7920 -18.7740 -18.6090 -18.5647 -18.5515 -18.5121
   -18.1314 -18.1151 -18.1024 -18.0840 -18.0767 -18.0511 -18.0402 -18.0323
   -18.0215 -18.0048 -17.9952 -17.9876 -17.9629 -17.9550 -17.9298 -17.8974
   -17.5161 -17.5117 -17.4787 -17.4776 -17.4658 -17.4614 -17.4424 -17.4338
   -17.3974 -17.3947 -17.3771 -17.3680 -17.3677 -17.3656 -17.3533 -17.3415
   -16.9285 -16.9215 -16.9074 -16.9028 -16.8869 -16.8863 -16.8750 -16.8711
   -16.7995 -16.7986 -16.7963 -16.7947 -16.7944 -16.7912 -16.7889 -16.7873
    -7.2364  -7.2164  -7.1135  -7.0928  -6.8702  -6.8466  -6.6318  -6.6052
    -6.6005  -6.5770  -6.5498  -6.5166  -6.3295  -6.2988  -6.2137  -6.1856
    -6.1204  -6.0920  -6.0066  -5.9946  -5.9732  -5.9639  -5.9130  -5.8952
    -5.8799  -5.8474  -5.8454  -5.8108  -5.8093  -5.7895  -5.7393  -5.7295
    -5.7029  -5.6875  -5.4942  -5.4764  -5.4560  -5.4354  -5.3165  -5.2457
    -5.1895  -5.1867  -5.1818  -5.1336  -5.1334  -5.0765  -5.0679  -5.0144
    -4.8854  -4.8798  -4.8762  -4.7714  -4.7585  -4.7570  -4.6991  -4.6839
    -4.6822  -4.6701  -4.6525  -4.6510  -4.6474  -4.6448  -4.6333  -4.6154
    -4.5906  -4.5700  -4.5135  -4.4863  -4.4522  -4.4347  -4.4139  -4.4019
    -4.4019  -4.3787  -4.3764  -4.3653  -4.3625  -4.3211  -4.2758  -4.2679
    -4.2373  -4.2030  -4.1869  -4.1864  -4.1440  -4.1090  -4.0900  -4.0834
    -4.0815  -4.0632  -4.0628  -3.9600  -3.9294  -3.9271  -3.9122  -3.8915
    -3.7977  -3.7867  -3.7508  -3.7363  -3.7250  -3.7082  -3.6270  -3.6183
    -3.6182  -3.6097  -3.5913  -3.5671  -3.5595  -3.5083  -3.5050  -3.5026
    -3.4941  -3.4813  -3.4696  -3.4426  -3.4206  -3.4020  -3.3886  -3.3761
    -3.3729  -3.3588  -3.3023  -3.2736  -3.2310  -3.1816  -3.1794  -3.1679
    -3.1178  -3.1176  -3.0867  -3.0769  -3.0367  -2.9856  -2.9191  -2.9109
    -2.7150  -2.6972  -2.6113  -2.5782  -2.5620  -2.5252  -2.5135  -2.4992
    -2.4206  -2.3945  -2.3334  -2.3283  -2.3243  -2.2407  -2.2293  -2.1898
    -2.1435  -2.1331  -2.1231  -2.1110  -2.1004  -2.0608  -1.9447  -1.9371
    -1.9160  -1.9113  -1.8828  -1.8540  -1.8171  -1.7903  -1.7572  -1.7336
    -1.7029  -1.6504  -1.5986  -1.5860  -1.5818  -1.5468  -1.5010  -1.4857
    -1.4244  -1.3408  -1.3220  -1.3095  -1.2584  -1.2461  -1.2199  -1.2157
    -1.0916  -1.0512  -1.0463  -1.0179  -0.9950  -0.9924  -0.9462  -0.9136
     2.0492   2.1664   2.2028   2.3119   2.3270   2.3299   2.4051   2.4305
     2.4864   2.4929   2.4982   2.5675   2.5840   2.5923   2.6544   2.6755
     2.7988   2.8070   2.8542   2.8688   2.9162   2.9863   3.0759   3.1269
     3.2391   3.3042   3.3108   3.3158   3.3688   3.3753   3.3775   3.4226
     3.4239   3.4378   3.4495   3.4669   3.5280   3.5395   3.5884   3.6495
     3.6750   3.6899   3.7268   3.7286   3.7410   3.8323   3.8380   3.8487
     3.8535   3.8659   3.8697   3.9023   3.9273   3.9403   3.9571   3.9640
     3.9939   4.0120   4.0248   4.0493   4.0568   4.0624   4.0818   4.0851
     4.0987   4.1056   4.1087   4.1126   4.1633   4.1637

          k = 0.2000-0.4730-0.4545 (455610 PWs)   bands (ev):

   -19.3761 -19.3194 -19.3124 -19.2599 -19.1238 -19.0771 -19.0703 -19.0276
   -18.8418 -18.8216 -18.7920 -18.7740 -18.6090 -18.5647 -18.5515 -18.5121
   -18.1314 -18.1151 -18.1024 -18.0840 -18.0767 -18.0511 -18.0402 -18.0323
   -18.0215 -18.0048 -17.9952 -17.9876 -17.9629 -17.9550 -17.9298 -17.8974
   -17.5161 -17.5117 -17.4787 -17.4776 -17.4658 -17.4614 -17.4424 -17.4338
   -17.3974 -17.3947 -17.3771 -17.3680 -17.3677 -17.3656 -17.3533 -17.3415
   -16.9285 -16.9215 -16.9074 -16.9028 -16.8869 -16.8863 -16.8750 -16.8711
   -16.7995 -16.7986 -16.7963 -16.7947 -16.7944 -16.7912 -16.7889 -16.7873
    -7.2364  -7.2164  -7.1135  -7.0928  -6.8702  -6.8466  -6.6318  -6.6052
    -6.6005  -6.5770  -6.5498  -6.5166  -6.3295  -6.2988  -6.2137  -6.1856
    -6.1205  -6.0920  -6.0066  -5.9946  -5.9732  -5.9639  -5.9130  -5.8952
    -5.8799  -5.8474  -5.8454  -5.8108  -5.8093  -5.7895  -5.7392  -5.7295
    -5.7029  -5.6875  -5.4942  -5.4764  -5.4560  -5.4354  -5.3165  -5.2457
    -5.1895  -5.1867  -5.1818  -5.1336  -5.1334  -5.0765  -5.0679  -5.0144
    -4.8854  -4.8798  -4.8762  -4.7714  -4.7585  -4.7570  -4.6991  -4.6839
    -4.6822  -4.6701  -4.6525  -4.6510  -4.6474  -4.6448  -4.6333  -4.6154
    -4.5906  -4.5700  -4.5135  -4.4863  -4.4522  -4.4347  -4.4139  -4.4019
    -4.4019  -4.3787  -4.3764  -4.3653  -4.3625  -4.3211  -4.2758  -4.2679
    -4.2373  -4.2030  -4.1869  -4.1864  -4.1440  -4.1090  -4.0900  -4.0834
    -4.0815  -4.0632  -4.0628  -3.9600  -3.9294  -3.9271  -3.9122  -3.8915
    -3.7977  -3.7867  -3.7508  -3.7363  -3.7250  -3.7082  -3.6270  -3.6183
    -3.6182  -3.6097  -3.5913  -3.5671  -3.5595  -3.5084  -3.5050  -3.5026
    -3.4941  -3.4813  -3.4696  -3.4426  -3.4206  -3.4020  -3.3886  -3.3761
    -3.3728  -3.3588  -3.3023  -3.2736  -3.2310  -3.1816  -3.1794  -3.1679
    -3.1178  -3.1176  -3.0867  -3.0769  -3.0367  -2.9856  -2.9191  -2.9109
    -2.7150  -2.6972  -2.6113  -2.5782  -2.5620  -2.5252  -2.5135  -2.4992
    -2.4206  -2.3945  -2.3334  -2.3283  -2.3243  -2.2407  -2.2293  -2.1898
    -2.1435  -2.1331  -2.1231  -2.1110  -2.1004  -2.0608  -1.9447  -1.9371
    -1.9160  -1.9113  -1.8828  -1.8540  -1.8171  -1.7903  -1.7572  -1.7336
    -1.7029  -1.6504  -1.5986  -1.5860  -1.5818  -1.5468  -1.5010  -1.4857
    -1.4244  -1.3408  -1.3220  -1.3095  -1.2584  -1.2461  -1.2199  -1.2157
    -1.0916  -1.0512  -1.0463  -1.0179  -0.9950  -0.9924  -0.9462  -0.9136
     2.0491   2.1663   2.2096   2.3117   2.3265   2.3359   2.4050   2.4303
     2.4911   2.4919   2.4982   2.5672   2.5838   2.5971   2.6540   2.6746
     2.8026   2.8062   2.8531   2.8719   2.9088   2.9797   3.0732   3.1290
     3.2404   3.3056   3.3117   3.3149   3.3693   3.3761   3.3783   3.4133
     3.4233   3.4352   3.4385   3.4674   3.5187   3.5330   3.5844   3.6448
     3.6724   3.6906   3.7262   3.7290   3.7415   3.8326   3.8383   3.8430
     3.8537   3.8599   3.8699   3.9024   3.9229   3.9405   3.9537   3.9590
     3.9939   4.0124   4.0250   4.0481   4.0571   4.0624   4.0818   4.0853
     4.0982   4.1038   4.1088   4.1110   4.1614   4.1635

          k = 0.2000-0.2365 0.0000 (455567 PWs)   bands (ev):

   -19.4230 -19.3638 -19.2542 -19.2065 -19.1590 -19.1030 -19.0371 -18.9915
   -18.8587 -18.8071 -18.8049 -18.7587 -18.6521 -18.6027 -18.4926 -18.4567
   -18.2045 -18.1751 -18.1397 -18.1122 -18.0574 -18.0404 -18.0369 -18.0328
   -18.0043 -17.9974 -17.9775 -17.9459 -17.9170 -17.8781 -17.8494 -17.8166
   -17.6368 -17.6336 -17.6025 -17.5936 -17.5595 -17.5483 -17.5342 -17.5201
   -17.3225 -17.3123 -17.3061 -17.3013 -17.2926 -17.2917 -17.2750 -17.2726
   -16.9340 -16.9160 -16.9107 -16.8987 -16.8861 -16.8851 -16.8763 -16.8652
   -16.8036 -16.8025 -16.8017 -16.7996 -16.7941 -16.7928 -16.7873 -16.7865
    -7.3325  -7.3134  -7.0597  -7.0385  -6.9865  -6.9667  -6.7135  -6.6856
    -6.5587  -6.5303  -6.3374  -6.3307  -6.3075  -6.3013  -6.2677  -6.2312
    -6.1694  -6.1497  -6.0025  -5.9991  -5.9628  -5.9627  -5.9543  -5.9193
    -5.8732  -5.8537  -5.8320  -5.8158  -5.7736  -5.7168  -5.6659  -5.6188
    -5.6149  -5.5595  -5.5325  -5.4844  -5.4245  -5.4222  -5.4153  -5.3767
    -5.2070  -5.1988  -5.1513  -5.1485  -5.0665  -5.0015  -4.9616  -4.9275
    -4.8786  -4.8490  -4.8355  -4.7820  -4.7482  -4.7176  -4.7171  -4.7062
    -4.6864  -4.6829  -4.6627  -4.6583  -4.6581  -4.6525  -4.6431  -4.6143
    -4.6143  -4.5575  -4.4941  -4.4510  -4.4176  -4.4166  -4.3932  -4.3924
    -4.3845  -4.3701  -4.3583  -4.3517  -4.3508  -4.3200  -4.2709  -4.2211
    -4.1966  -4.1813  -4.1779  -4.1416  -4.1388  -4.0941  -4.0901  -4.0726
    -4.0580  -4.0395  -4.0349  -4.0339  -3.9649  -3.9333  -3.9150  -3.8640
    -3.8203  -3.7984  -3.7830  -3.7720  -3.7717  -3.7151  -3.6838  -3.6763
    -3.6668  -3.6273  -3.6204  -3.6101  -3.6092  -3.6073  -3.5730  -3.5625
    -3.5343  -3.5240  -3.5161  -3.5117  -3.4647  -3.4619  -3.4521  -3.4330
    -3.4322  -3.3790  -3.3516  -3.3180  -3.3169  -3.2635  -3.1969  -3.1828
    -3.1550  -3.0857  -3.0353  -2.9420  -2.9227  -2.9116  -2.8847  -2.8731
    -2.8598  -2.7011  -2.6964  -2.6831  -2.6314  -2.6192  -2.4282  -2.4051
    -2.3881  -2.3148  -2.2959  -2.2950  -2.2634  -2.2446  -2.2431  -2.2017
    -2.1891  -2.1708  -2.1418  -2.1041  -2.0545  -2.0150  -2.0042  -1.9722
    -1.9721  -1.9615  -1.9499  -1.8036  -1.7680  -1.7553  -1.7032  -1.6690
    -1.6665  -1.6340  -1.5959  -1.5101  -1.4986  -1.4760  -1.4340  -1.3899
    -1.3867  -1.3746  -1.2893  -1.2797  -1.2773  -1.2375  -1.2242  -1.2126
    -1.1422  -1.1122  -1.0739  -1.0360  -1.0121  -0.9485  -0.8875  -0.8265
     1.9766   2.1207   2.1747   2.2130   2.2584   2.3268   2.3379   2.3798
     2.4187   2.4869   2.5419   2.6066   2.6942   2.7211   2.7504   2.7713
     2.7856   2.8098   2.9149   2.9290   2.9431   3.0200   3.0308   3.1672
     3.1907   3.2670   3.2827   3.2955   3.3133   3.3557   3.3795   3.3998
     3.4649   3.4911   3.5075   3.5133   3.5332   3.5412   3.6337   3.6423
     3.6554   3.6916   3.7205   3.7291   3.7595   3.7890   3.7908   3.7999
     3.8041   3.8281   3.8506   3.8627   3.9028   3.9128   3.9381   3.9709
     3.9816   3.9964   4.0014   4.0468   4.0629   4.0659   4.0829   4.0937
     4.0959   4.1490   4.1634   4.1673   4.1995   4.2012

          k = 0.2000-0.2365-0.4545 (455692 PWs)   bands (ev):

   -19.4230 -19.3638 -19.2542 -19.2065 -19.1590 -19.1030 -19.0371 -18.9915
   -18.8587 -18.8071 -18.8049 -18.7587 -18.6521 -18.6027 -18.4926 -18.4567
   -18.2045 -18.1751 -18.1397 -18.1122 -18.0574 -18.0404 -18.0369 -18.0328
   -18.0043 -17.9974 -17.9775 -17.9459 -17.9170 -17.8781 -17.8494 -17.8166
   -17.6368 -17.6336 -17.6025 -17.5936 -17.5595 -17.5483 -17.5342 -17.5201
   -17.3225 -17.3123 -17.3061 -17.3013 -17.2926 -17.2917 -17.2750 -17.2726
   -16.9340 -16.9160 -16.9107 -16.8987 -16.8861 -16.8851 -16.8763 -16.8652
   -16.8036 -16.8025 -16.8017 -16.7996 -16.7941 -16.7928 -16.7873 -16.7865
    -7.3325  -7.3134  -7.0597  -7.0385  -6.9865  -6.9667  -6.7135  -6.6856
    -6.5587  -6.5303  -6.3374  -6.3307  -6.3075  -6.3013  -6.2677  -6.2312
    -6.1694  -6.1498  -6.0025  -5.9991  -5.9628  -5.9627  -5.9543  -5.9193
    -5.8732  -5.8537  -5.8320  -5.8158  -5.7736  -5.7168  -5.6659  -5.6188
[...]
    -4.6456  -4.6354  -4.5748  -4.5497  -4.4309  -4.4211  -4.4174  -4.4115
    -4.3748  -4.3705  -4.3643  -4.3634  -4.3597  -4.2690  -4.2604  -4.2513
    -4.2380  -4.2374  -4.2341  -4.2161  -4.2006  -4.1954  -4.1402  -4.1364
    -4.1261  -4.1173  -4.0678  -3.9945  -3.8894  -3.8500  -3.8314  -3.7810
    -3.7577  -3.7262  -3.7235  -3.7108  -3.6581  -3.6490  -3.6287  -3.6231
    -3.6149  -3.5927  -3.5923  -3.5849  -3.5810  -3.5561  -3.5386  -3.5244
    -3.5232  -3.4930  -3.4785  -3.4723  -3.4699  -3.4627  -3.4431  -3.4248
    -3.4204  -3.3698  -3.3153  -3.2893  -3.2676  -3.2382  -3.0922  -3.0802
    -3.0655  -3.0521  -3.0378  -3.0060  -2.9931  -2.9707  -2.9268  -2.9197
    -2.7331  -2.7240  -2.5522  -2.5489  -2.5271  -2.5078  -2.5019  -2.4235
    -2.3765  -2.3650  -2.3627  -2.3471  -2.2840  -2.2801  -2.2769  -2.2518
    -2.1974  -2.1698  -2.1395  -2.1368  -2.1128  -2.0363  -2.0268  -1.9898
    -1.9174  -1.8989  -1.8374  -1.8186  -1.8118  -1.7803  -1.7547  -1.7230
    -1.6705  -1.6319  -1.6181  -1.6057  -1.5463  -1.5291  -1.5218  -1.5028
    -1.4051  -1.3830  -1.3476  -1.3414  -1.2364  -1.2316  -1.2244  -1.2205
    -1.0810  -1.0672  -1.0314  -1.0138  -1.0061  -0.9990  -0.9304  -0.9201
     2.0930   2.1819   2.2216   2.2632   2.3210   2.3509   2.3597   2.3816
     2.3860   2.4757   2.5188   2.5367   2.5472   2.5569   2.7291   2.7359
     2.8688   2.8928   2.9576   2.9641   2.9865   3.0012   3.0942   3.1183
     3.1636   3.2779   3.2802   3.3299   3.3716   3.3751   3.3768   3.3803
     3.3878   3.3979   3.4073   3.4392   3.4587   3.4941   3.4970   3.5081
     3.7406   3.7590   3.7601   3.7910   3.8227   3.8296   3.8441   3.8551
     3.8640   3.8744   3.9039   3.9245   3.9245   3.9600   3.9688   4.0026
     4.0117   4.0257   4.0331   4.0352   4.0361   4.0434   4.0759   4.1036
     4.1062   4.1100   4.1160   4.1273   4.1304   4.1485

          k = 0.4000 0.4730-0.4545 (455556 PWs)   bands (ev):

   -19.3219 -19.2657 -19.2608 -19.2352 -19.2087 -19.1800 -19.1798 -19.1286
   -18.7202 -18.7144 -18.6748 -18.6687 -18.6482 -18.6115 -18.6038 -18.5697
   -18.1499 -18.1419 -18.1173 -18.1091 -18.0909 -18.0785 -18.0537 -18.0437
   -18.0035 -17.9892 -17.9768 -17.9610 -17.9531 -17.9333 -17.9230 -17.9035
   -17.5177 -17.5152 -17.4810 -17.4808 -17.4618 -17.4609 -17.4369 -17.4342
   -17.3996 -17.3979 -17.3713 -17.3704 -17.3699 -17.3665 -17.3462 -17.3428
   -16.9237 -16.9171 -16.9163 -16.9106 -16.8806 -16.8795 -16.8770 -16.8741
   -16.7997 -16.7995 -16.7962 -16.7955 -16.7930 -16.7920 -16.7882 -16.7875
    -7.1074  -7.0846  -6.9932  -6.9693  -6.9008  -6.8741  -6.7999  -6.7713
    -6.7423  -6.7176  -6.5544  -6.5277  -6.5067  -6.4780  -6.3629  -6.3335
    -6.0520  -6.0222  -5.9545  -5.9256  -5.8771  -5.8594  -5.8468  -5.8326
    -5.8321  -5.8216  -5.8089  -5.7916  -5.7327  -5.7034  -5.6939  -5.6474
    -5.5962  -5.5442  -5.5071  -5.4691  -5.4319  -5.3961  -5.3396  -5.3304
    -5.2982  -5.2887  -5.2718  -5.2218  -5.0689  -4.9934  -4.9847  -4.8955
    -4.8938  -4.8697  -4.7807  -4.7706  -4.7649  -4.7342  -4.7271  -4.7249
    -4.7104  -4.7057  -4.6898  -4.6681  -4.6626  -4.6498  -4.6494  -4.6458
    -4.6456  -4.6354  -4.5748  -4.5497  -4.4309  -4.4211  -4.4174  -4.4115
    -4.3748  -4.3705  -4.3643  -4.3633  -4.3597  -4.2690  -4.2604  -4.2513
    -4.2380  -4.2374  -4.2341  -4.2161  -4.2006  -4.1954  -4.1402  -4.1364
    -4.1261  -4.1173  -4.0678  -3.9945  -3.8894  -3.8500  -3.8314  -3.7810
    -3.7577  -3.7262  -3.7235  -3.7108  -3.6581  -3.6490  -3.6287  -3.6231
    -3.6149  -3.5927  -3.5923  -3.5849  -3.5810  -3.5561  -3.5386  -3.5244
    -3.5232  -3.4930  -3.4785  -3.4723  -3.4699  -3.4627  -3.4431  -3.4248
    -3.4204  -3.3698  -3.3153  -3.2893  -3.2676  -3.2382  -3.0922  -3.0802
    -3.0655  -3.0521  -3.0378  -3.0060  -2.9931  -2.9707  -2.9268  -2.9197
    -2.7331  -2.7240  -2.5522  -2.5489  -2.5271  -2.5078  -2.5019  -2.4235
    -2.3765  -2.3650  -2.3627  -2.3471  -2.2840  -2.2801  -2.2769  -2.2518
    -2.1974  -2.1698  -2.1395  -2.1368  -2.1128  -2.0363  -2.0268  -1.9898
    -1.9174  -1.8989  -1.8374  -1.8186  -1.8118  -1.7803  -1.7547  -1.7230
    -1.6705  -1.6319  -1.6181  -1.6057  -1.5463  -1.5291  -1.5218  -1.5028
    -1.4051  -1.3830  -1.3476  -1.3414  -1.2364  -1.2316  -1.2244  -1.2205
    -1.0810  -1.0672  -1.0314  -1.0138  -1.0061  -0.9989  -0.9304  -0.9201
     2.0928   2.1817   2.2214   2.2697   2.3207   2.3506   2.3658   2.3814
     2.3918   2.4810   2.5175   2.5367   2.5472   2.5561   2.7289   2.7356
     2.8663   2.8874   2.9546   2.9669   2.9810   3.0034   3.0960   3.1202
     3.1616   3.2796   3.2820   3.3287   3.3611   3.3691   3.3772   3.3773
     3.3808   3.3990   3.4082   3.4396   3.4591   3.4829   3.4961   3.4992
     3.7395   3.7592   3.7606   3.7913   3.8230   3.8291   3.8429   3.8557
     3.8642   3.8747   3.9021   3.9246   3.9248   3.9603   3.9650   4.0026
     4.0076   4.0219   4.0294   4.0332   4.0363   4.0436   4.0760   4.1018
     4.1037   4.1068   4.1162   4.1229   4.1286   4.1486

          k = 0.4000-0.4730 0.0000 (455645 PWs)   bands (ev):

   -19.3218 -19.2656 -19.2609 -19.2354 -19.2089 -19.1802 -19.1796 -19.1284
   -18.7208 -18.7138 -18.6754 -18.6680 -18.6476 -18.6122 -18.6033 -18.5703
   -18.1481 -18.1436 -18.1157 -18.1108 -18.0897 -18.0797 -18.0525 -18.0449
   -18.0022 -17.9905 -17.9755 -17.9623 -17.9539 -17.9325 -17.9239 -17.9027
   -17.5171 -17.5157 -17.4810 -17.4808 -17.4624 -17.4604 -17.4372 -17.4340
   -17.3993 -17.3981 -17.3707 -17.3705 -17.3705 -17.3664 -17.3467 -17.3424
   -16.9237 -16.9172 -16.9163 -16.9106 -16.8807 -16.8795 -16.8769 -16.8742
   -16.7997 -16.7994 -16.7961 -16.7956 -16.7931 -16.7919 -16.7881 -16.7876
    -7.1072  -7.0845  -6.9923  -6.9683  -6.9013  -6.8745  -6.8007  -6.7723
    -6.7442  -6.7196  -6.5520  -6.5250  -6.5057  -6.4769  -6.3645  -6.3354
    -6.0530  -6.0233  -5.9508  -5.9219  -5.8731  -5.8637  -5.8426  -5.8363
    -5.8362  -5.8205  -5.8127  -5.7906  -5.7286  -5.7074  -5.6894  -5.6522
    -5.5983  -5.5462  -5.5021  -5.4634  -5.4315  -5.3964  -5.3387  -5.3304
    -5.2981  -5.2872  -5.2750  -5.2260  -5.0735  -4.9981  -4.9831  -4.8949
    -4.8948  -4.8679  -4.7804  -4.7676  -4.7631  -4.7351  -4.7270  -4.7252
    -4.7108  -4.7051  -4.6934  -4.6657  -4.6625  -4.6495  -4.6495  -4.6458
    -4.6456  -4.6317  -4.5789  -4.5477  -4.4296  -4.4194  -4.4181  -4.4138
    -4.3727  -4.3723  -4.3652  -4.3625  -4.3589  -4.2696  -4.2616  -4.2514
    -4.2385  -4.2370  -4.2343  -4.2138  -4.1973  -4.1970  -4.1396  -4.1380
    -4.1247  -4.1174  -4.0688  -3.9951  -3.8871  -3.8513  -3.8334  -3.7797
    -3.7543  -3.7241  -3.7219  -3.7126  -3.6596  -3.6510  -3.6283  -3.6233
    -3.6129  -3.5947  -3.5931  -3.5871  -3.5835  -3.5542  -3.5383  -3.5312
    -3.5234  -3.4919  -3.4802  -3.4712  -3.4709  -3.4594  -3.4436  -3.4238
    -3.4165  -3.3703  -3.3148  -3.2891  -3.2693  -3.2370  -3.0919  -3.0781
    -3.0654  -3.0503  -3.0376  -3.0117  -2.9901  -2.9657  -2.9291  -2.9288
    -2.7298  -2.7275  -2.5537  -2.5461  -2.5247  -2.5100  -2.4968  -2.4172
    -2.3787  -2.3675  -2.3644  -2.3449  -2.2860  -2.2830  -2.2739  -2.2545
    -2.1994  -2.1679  -2.1404  -2.1366  -2.1137  -2.0360  -2.0255  -1.9902
    -1.9153  -1.8990  -1.8381  -1.8175  -1.8119  -1.7805  -1.7555  -1.7230
    -1.6700  -1.6313  -1.6185  -1.6067  -1.5469  -1.5284  -1.5207  -1.5032
    -1.4067  -1.3812  -1.3465  -1.3429  -1.2371  -1.2310  -1.2237  -1.2210
    -1.0812  -1.0671  -1.0321  -1.0130  -1.0062  -0.9989  -0.9309  -0.9197
     2.0928   2.1821   2.2217   2.2632   2.3214   2.3536   2.3597   2.3783
     2.3860   2.4756   2.5167   2.5336   2.5500   2.5588   2.7314   2.7346
     2.8658   2.8951   2.9605   2.9645   2.9831   3.0006   3.0949   3.1177
     3.1674   3.2782   3.2800   3.3278   3.3671   3.3769   3.3783   3.3805
     3.3873   3.3962   3.4098   3.4413   3.4558   3.4904   3.4999   3.5093
     3.7524   3.7577   3.7691   3.7924   3.8147   3.8176   3.8326   3.8399
     3.8664   3.8733   3.9165   3.9266   3.9360   3.9569   3.9760   4.0017
     4.0107   4.0128   4.0221   4.0353   4.0358   4.0399   4.0735   4.1068
     4.1117   4.1126   4.1181   4.1256   4.1396   4.1596

          k = 0.4000-0.4730-0.4545 (455556 PWs)   bands (ev):

   -19.3218 -19.2656 -19.2609 -19.2354 -19.2089 -19.1802 -19.1796 -19.1284
   -18.7208 -18.7138 -18.6754 -18.6680 -18.6476 -18.6122 -18.6033 -18.5703
   -18.1481 -18.1436 -18.1157 -18.1108 -18.0897 -18.0797 -18.0525 -18.0449
   -18.0022 -17.9905 -17.9755 -17.9623 -17.9539 -17.9325 -17.9239 -17.9027
   -17.5171 -17.5157 -17.4810 -17.4808 -17.4624 -17.4604 -17.4372 -17.4340
   -17.3993 -17.3981 -17.3707 -17.3705 -17.3705 -17.3664 -17.3467 -17.3424
   -16.9237 -16.9172 -16.9163 -16.9106 -16.8807 -16.8795 -16.8769 -16.8742
   -16.7997 -16.7994 -16.7961 -16.7956 -16.7931 -16.7919 -16.7881 -16.7876
    -7.1072  -7.0845  -6.9923  -6.9683  -6.9013  -6.8745  -6.8007  -6.7723
    -6.7442  -6.7196  -6.5520  -6.5250  -6.5057  -6.4769  -6.3645  -6.3354
    -6.0530  -6.0233  -5.9508  -5.9219  -5.8731  -5.8637  -5.8426  -5.8363
    -5.8362  -5.8205  -5.8127  -5.7906  -5.7286  -5.7074  -5.6894  -5.6522
    -5.5983  -5.5462  -5.5021  -5.4634  -5.4315  -5.3964  -5.3387  -5.3304
    -5.2980  -5.2872  -5.2750  -5.2260  -5.0735  -4.9981  -4.9831  -4.8949
    -4.8948  -4.8679  -4.7804  -4.7676  -4.7631  -4.7351  -4.7270  -4.7252
    -4.7108  -4.7051  -4.6934  -4.6657  -4.6625  -4.6495  -4.6495  -4.6458
    -4.6456  -4.6317  -4.5789  -4.5477  -4.4296  -4.4194  -4.4181  -4.4138
    -4.3727  -4.3723  -4.3652  -4.3625  -4.3589  -4.2696  -4.2616  -4.2514
    -4.2385  -4.2370  -4.2343  -4.2138  -4.1973  -4.1970  -4.1396  -4.1379
    -4.1246  -4.1174  -4.0688  -3.9951  -3.8871  -3.8513  -3.8334  -3.7797
    -3.7543  -3.7241  -3.7219  -3.7126  -3.6596  -3.6510  -3.6283  -3.6233
    -3.6129  -3.5947  -3.5931  -3.5871  -3.5835  -3.5542  -3.5383  -3.5312
    -3.5234  -3.4919  -3.4802  -3.4712  -3.4709  -3.4594  -3.4436  -3.4238
    -3.4165  -3.3703  -3.3148  -3.2891  -3.2693  -3.2370  -3.0919  -3.0781
    -3.0654  -3.0503  -3.0376  -3.0117  -2.9901  -2.9657  -2.9291  -2.9288
    -2.7298  -2.7275  -2.5537  -2.5461  -2.5247  -2.5100  -2.4968  -2.4173
    -2.3787  -2.3675  -2.3644  -2.3449  -2.2860  -2.2830  -2.2739  -2.2545
    -2.1994  -2.1679  -2.1404  -2.1366  -2.1137  -2.0360  -2.0255  -1.9902
    -1.9153  -1.8990  -1.8381  -1.8175  -1.8119  -1.7805  -1.7555  -1.7230
    -1.6700  -1.6313  -1.6185  -1.6067  -1.5469  -1.5284  -1.5207  -1.5032
    -1.4067  -1.3812  -1.3465  -1.3429  -1.2371  -1.2310  -1.2237  -1.2210
    -1.0812  -1.0671  -1.0321  -1.0130  -1.0062  -0.9989  -0.9309  -0.9197
     2.0927   2.1819   2.2215   2.2697   2.3211   2.3533   2.3658   2.3781
     2.3919   2.4810   2.5154   2.5336   2.5499   2.5579   2.7312   2.7342
     2.8634   2.8897   2.9575   2.9673   2.9777   3.0028   3.0967   3.1196
     3.1655   3.2798   3.2818   3.3265   3.3624   3.3645   3.3773   3.3791
     3.3810   3.3973   3.4108   3.4417   3.4562   3.4793   3.4988   3.5003
     3.7512   3.7579   3.7696   3.7927   3.8150   3.8172   3.8315   3.8404
     3.8667   3.8736   3.9145   3.9267   3.9363   3.9571   3.9722   4.0018
     4.0067   4.0090   4.0165   4.0354   4.0359   4.0401   4.0736   4.1070
     4.1082   4.1128   4.1165   4.1212   4.1351   4.1597

          k = 0.4000-0.2365 0.0000 (455670 PWs)   bands (ev):

   -19.3668 -19.3080 -19.2768 -19.2190 -19.2056 -19.1583 -19.1298 -19.0831
   -18.7281 -18.7102 -18.6817 -18.6769 -18.6635 -18.6291 -18.5808 -18.5397
   -18.2012 -18.1781 -18.1709 -18.1488 -18.0373 -18.0320 -18.0264 -18.0130
   -18.0070 -17.9986 -17.9953 -17.9753 -17.8813 -17.8555 -17.8468 -17.8235
   -17.6415 -17.6404 -17.6051 -17.6020 -17.5530 -17.5486 -17.5263 -17.5212
   -17.3206 -17.3171 -17.3029 -17.2983 -17.2968 -17.2928 -17.2731 -17.2716
   -16.9288 -16.9206 -16.9118 -16.9056 -16.8807 -16.8778 -16.8769 -16.8697
   -16.8037 -16.8032 -16.8008 -16.8001 -16.7938 -16.7934 -16.7870 -16.7866
    -7.2009  -7.1795  -6.9902  -6.9656  -6.9611  -6.9381  -6.8274  -6.8045
    -6.7908  -6.7653  -6.5980  -6.5694  -6.2695  -6.2487  -6.1983  -6.1960
    -6.1782  -6.1547  -6.0784  -6.0345  -5.9144  -5.8850  -5.8788  -5.8535
    -5.7906  -5.7509  -5.7043  -5.7030  -5.6581  -5.6426  -5.6053  -5.5853
    -5.5456  -5.5336  -5.4781  -5.4288  -5.3995  -5.3672  -5.3627  -5.2847
    -5.2695  -5.2531  -5.2233  -5.2171  -5.2065  -5.1585  -4.9818  -4.9333
    -4.8646  -4.8386  -4.8276  -4.7800  -4.7539  -4.7521  -4.7443  -4.7390
    -4.7212  -4.7181  -4.7019  -4.6937  -4.6663  -4.6510  -4.6506  -4.6379
    -4.6275  -4.5331  -4.4787  -4.4592  -4.4180  -4.4137  -4.4081  -4.4045
    -4.4044  -4.3975  -4.3774  -4.3709  -4.3503  -4.3443  -4.2450  -4.2099
    -4.2055  -4.1840  -4.1791  -4.1660  -4.0924  -4.0829  -4.0826  -4.0787
    -4.0704  -4.0064  -3.9711  -3.9624  -3.9193  -3.9032  -3.8990  -3.8503
    -3.8451  -3.8327  -3.8314  -3.8195  -3.7980  -3.7826  -3.7615  -3.7432
    -3.6562  -3.6341  -3.6276  -3.6257  -3.6070  -3.5842  -3.5695  -3.5378
    -3.5295  -3.5219  -3.5097  -3.4904  -3.4721  -3.4521  -3.4518  -3.4364
    -3.4172  -3.4010  -3.3599  -3.3505  -3.2004  -3.1593  -3.1554  -3.1261
    -3.1136  -3.0225  -3.0020  -3.0006  -2.9460  -2.9321  -2.9273  -2.9199
    -2.8452  -2.7482  -2.6647  -2.6617  -2.5460  -2.5215  -2.4363  -2.4303
    -2.4100  -2.3950  -2.3635  -2.3418  -2.3052  -2.2931  -2.2674  -2.2267
    -2.1574  -2.1496  -2.1122  -2.0926  -2.0054  -1.9817  -1.9374  -1.9346
    -1.9313  -1.8905  -1.8741  -1.8412  -1.7838  -1.7826  -1.7824  -1.7677
    -1.6220  -1.6219  -1.5589  -1.5500  -1.5497  -1.4746  -1.4131  -1.4107
    -1.3894  -1.3780  -1.3257  -1.3142  -1.2468  -1.2288  -1.2278  -1.2195
    -1.1371  -1.1260  -1.0584  -1.0448  -0.9964  -0.9737  -0.8642  -0.8428
     2.0106   2.0889   2.1843   2.2005   2.2299   2.2857   2.3550   2.3698
     2.4299   2.5386   2.5474   2.6193   2.6371   2.6709   2.7392   2.8126
     2.8721   2.9320   2.9448   2.9649   2.9749   3.0202   3.0535   3.1092
     3.1991   3.1996   3.2243   3.2498   3.3108   3.3216   3.3298   3.3522
     3.4765   3.4793   3.5167   3.5236   3.5401   3.5588   3.5785   3.5829
     3.6839   3.7218   3.7320   3.7362   3.7514   3.7545   3.7908   3.8244
     3.8344   3.8348   3.8559   3.8943   3.9217   3.9242   3.9504   3.9788
     4.0084   4.0158   4.0185   4.0481   4.0784   4.0826   4.1002   4.1170
     4.1333   4.1386   4.1434   4.1522   4.1820   4.1891

          k = 0.4000-0.2365-0.4545 (455754 PWs)   bands (ev):

   -19.3668 -19.3080 -19.2768 -19.2190 -19.2056 -19.1583 -19.1298 -19.0831
   -18.7281 -18.7102 -18.6817 -18.6769 -18.6635 -18.6291 -18.5808 -18.5397
   -18.2012 -18.1781 -18.1709 -18.1488 -18.0373 -18.0320 -18.0264 -18.0130
   -18.0070 -17.9986 -17.9953 -17.9753 -17.8813 -17.8555 -17.8468 -17.8235
   -17.6415 -17.6404 -17.6051 -17.6020 -17.5530 -17.5486 -17.5263 -17.5212
   -17.3206 -17.3171 -17.3029 -17.2983 -17.2968 -17.2928 -17.2731 -17.2716
   -16.9288 -16.9206 -16.9118 -16.9056 -16.8807 -16.8778 -16.8769 -16.8697
   -16.8037 -16.8032 -16.8008 -16.8001 -16.7938 -16.7934 -16.7870 -16.7866
    -7.2009  -7.1795  -6.9902  -6.9656  -6.9611  -6.9381  -6.8274  -6.8045
    -6.7908  -6.7653  -6.5980  -6.5694  -6.2695  -6.2487  -6.1983  -6.1960
    -6.1782  -6.1547  -6.0784  -6.0345  -5.9144  -5.8850  -5.8788  -5.8535
    -5.7906  -5.7509  -5.7043  -5.7030  -5.6581  -5.6426  -5.6053  -5.5853
    -5.5456  -5.5336  -5.4781  -5.4288  -5.3995  -5.3672  -5.3627  -5.2847
    -5.2695  -5.2531  -5.2233  -5.2171  -5.2065  -5.1585  -4.9818  -4.9333
    -4.8646  -4.8386  -4.8276  -4.7800  -4.7539  -4.7521  -4.7443  -4.7390
    -4.7212  -4.7181  -4.7019  -4.6937  -4.6663  -4.6510  -4.6506  -4.6379
    -4.6275  -4.5331  -4.4788  -4.4592  -4.4180  -4.4137  -4.4081  -4.4045
    -4.4044  -4.3975  -4.3774  -4.3709  -4.3503  -4.3443  -4.2450  -4.2099
    -4.2055  -4.1840  -4.1791  -4.1660  -4.0924  -4.0829  -4.0826  -4.0787
    -4.0704  -4.0064  -3.9711  -3.9624  -3.9193  -3.9032  -3.8990  -3.8503
    -3.8451  -3.8327  -3.8314  -3.8195  -3.7980  -3.7826  -3.7615  -3.7432
    -3.6562  -3.6341  -3.6276  -3.6257  -3.6070  -3.5842  -3.5695  -3.5378
    -3.5295  -3.5219  -3.5097  -3.4904  -3.4721  -3.4521  -3.4518  -3.4364
    -3.4172  -3.4010  -3.3599  -3.3505  -3.2004  -3.1593  -3.1554  -3.1261
    -3.1136  -3.0225  -3.0020  -3.0006  -2.9460  -2.9321  -2.9272  -2.9199
    -2.8452  -2.7482  -2.6647  -2.6617  -2.5460  -2.5215  -2.4363  -2.4303
    -2.4100  -2.3950  -2.3635  -2.3418  -2.3052  -2.2931  -2.2674  -2.2267
    -2.1574  -2.1496  -2.1122  -2.0926  -2.0054  -1.9817  -1.9374  -1.9346
    -1.9313  -1.8905  -1.8741  -1.8412  -1.7838  -1.7826  -1.7824  -1.7677
    -1.6220  -1.6219  -1.5589  -1.5500  -1.5497  -1.4746  -1.4131  -1.4107
    -1.3894  -1.3780  -1.3257  -1.3142  -1.2468  -1.2288  -1.2278  -1.2195
    -1.1371  -1.1260  -1.0584  -1.0448  -0.9965  -0.9737  -0.8642  -0.8428
     2.0105   2.0888   2.1914   2.2003   2.2298   2.2923   2.3550   2.3698
     2.4298   2.5434   2.5472   2.6237   2.6329   2.6691   2.7373   2.8115
     2.8718   2.9352   2.9417   2.9679   2.9773   3.0196   3.0511   3.1114
     3.1926   3.2016   3.2211   3.2510   3.3115   3.3185   3.3220   3.3400
     3.4770   3.4798   3.5153   3.5241   3.5405   3.5550   3.5752   3.5763
     3.6841   3.7173   3.7325   3.7365   3.7479   3.7548   3.7885   3.8245
     3.8286   3.8345   3.8523   3.8890   3.9219   3.9245   3.9508   3.9719
     4.0087   4.0154   4.0159   4.0485   4.0786   4.0823   4.1004   4.1162
     4.1273   4.1388   4.1436   4.1525   4.1779   4.1895

     the Fermi energy is     2.8243 ev

!    total energy              =   -2370.63541805 Ry
     Harris-Foulkes estimate   =   -2370.63541806 Ry
     estimated scf accuracy    <          4.1E-09 Ry

     The total energy is the sum of the following terms:

     one-electron contribution =  -11537.86595848 Ry
     hartree contribution      =    5990.07798258 Ry
     xc contribution           =    -547.72305792 Ry
     ewald contribution        =    3725.15992469 Ry
     smearing contrib. (-TS)   =      -0.28430891 Ry

     convergence has been achieved in  49 iterations
 
     init_run     :    148.67s CPU     15.83s WALL (       1 calls)
     electrons    :   3430.78s CPU    287.61s WALL (       1 calls)

     Called by init_run:
     wfcinit      :    122.46s CPU     10.32s WALL (       1 calls)
     potinit      :     16.60s CPU      1.39s WALL (       1 calls)

     Called by electrons:
     c_bands      :   2666.14s CPU    223.68s WALL (      49 calls)
     sum_band     :    436.05s CPU     36.48s WALL (      49 calls)
     v_of_rho     :     74.95s CPU      6.30s WALL (      50 calls)
     mix_rho      :    177.55s CPU     14.82s WALL (      49 calls)

     Called by c_bands:
     init_us_2    :     19.99s CPU      1.68s WALL (      99 calls)
     cegterg      :   2414.00s CPU    202.62s WALL (      49 calls)

     Called by sum_band:

     Called by *egterg:
     h_psi        :   1833.62s CPU    153.73s WALL (     377 calls)
     g_psi        :      5.53s CPU      0.45s WALL (     327 calls)
     cdiaghg      :    224.42s CPU     18.80s WALL (     376 calls)

     Called by h_psi:
     h_psi:pot    :   1826.37s CPU    153.13s WALL (     377 calls)
     h_psi:calbec :    209.96s CPU     17.73s WALL (     377 calls)
     vloc_psi     :   1447.53s CPU    121.13s WALL (     377 calls)
     add_vuspsi   :    168.78s CPU     14.27s WALL (     377 calls)

     General routines
     calbec       :    209.92s CPU     17.73s WALL (     377 calls)
     fft          :     88.51s CPU      7.42s WALL (     549 calls)
     fftw         :   1746.70s CPU    146.15s WALL (    6411 calls)
 
     Parallel routines
     fft_scatter  :     79.80s CPU      6.68s WALL (     549 calls)
 
     PWSCF        :   3599.83s CPU    307.63s WALL

 
   This run was terminated on:  18:35:53  23Jan2018            

=------------------------------------------------------------------------------=
   JOB DONE.
=------------------------------------------------------------------------------=
